+ 0.1 0 1 tcp 40 ------- 1 0.0 1.0 0 0
- 0.1 0 1 tcp 40 ------- 1 0.0 1.0 0 0
r 0.12016 0 1 tcp 40 ------- 1 0.0 1.0 0 0
+ 0.12016 1 0 ack 40 ------- 1 1.0 0.0 0 1
- 0.12016 1 0 ack 40 ------- 1 1.0 0.0 0 1
r 0.14032 1 0 ack 40 ------- 1 1.0 0.0 0 1
+ 0.14032 0 1 tcp 1040 ------- 1 0.0 1.0 1 2
- 0.14032 0 1 tcp 1040 ------- 1 0.0 1.0 1 2
+ 0.14032 0 1 tcp 1040 ------- 1 0.0 1.0 2 3
- 0.14448 0 1 tcp 1040 ------- 1 0.0 1.0 2 3
r 0.16448 0 1 tcp 1040 ------- 1 0.0 1.0 1 2
+ 0.16448 1 0 ack 40 ------- 1 1.0 0.0 1 4
- 0.16448 1 0 ack 40 ------- 1 1.0 0.0 1 4
r 0.16864 0 1 tcp 1040 ------- 1 0.0 1.0 2 3
+ 0.16864 1 0 ack 40 ------- 1 1.0 0.0 2 5
- 0.16864 1 0 ack 40 ------- 1 1.0 0.0 2 5
r 0.18464 1 0 ack 40 ------- 1 1.0 0.0 1 4
+ 0.18464 0 1 tcp 1040 ------- 1 0.0 1.0 3 6
- 0.18464 0 1 tcp 1040 ------- 1 0.0 1.0 3 6
+ 0.18464 0 1 tcp 1040 ------- 1 0.0 1.0 4 7
r 0.1888 1 0 ack 40 ------- 1 1.0 0.0 2 5
+ 0.1888 0 1 tcp 1040 ------- 1 0.0 1.0 5 8
+ 0.1888 0 1 tcp 1040 ------- 1 0.0 1.0 6 9
- 0.1888 0 1 tcp 1040 ------- 1 0.0 1.0 4 7
- 0.19296 0 1 tcp 1040 ------- 1 0.0 1.0 5 8
- 0.19712 0 1 tcp 1040 ------- 1 0.0 1.0 6 9
r 0.2088 0 1 tcp 1040 ------- 1 0.0 1.0 3 6
+ 0.2088 1 0 ack 40 ------- 1 1.0 0.0 3 10
- 0.2088 1 0 ack 40 ------- 1 1.0 0.0 3 10
r 0.21296 0 1 tcp 1040 ------- 1 0.0 1.0 4 7
+ 0.21296 1 0 ack 40 ------- 1 1.0 0.0 4 11
- 0.21296 1 0 ack 40 ------- 1 1.0 0.0 4 11
r 0.21712 0 1 tcp 1040 ------- 1 0.0 1.0 5 8
+ 0.21712 1 0 ack 40 ------- 1 1.0 0.0 5 12
- 0.21712 1 0 ack 40 ------- 1 1.0 0.0 5 12
r 0.22128 0 1 tcp 1040 ------- 1 0.0 1.0 6 9
+ 0.22128 1 0 ack 40 ------- 1 1.0 0.0 6 13
- 0.22128 1 0 ack 40 ------- 1 1.0 0.0 6 13
r 0.22896 1 0 ack 40 ------- 1 1.0 0.0 3 10
+ 0.22896 0 1 tcp 1040 ------- 1 0.0 1.0 7 14
- 0.22896 0 1 tcp 1040 ------- 1 0.0 1.0 7 14
+ 0.22896 0 1 tcp 1040 ------- 1 0.0 1.0 8 15
r 0.23312 1 0 ack 40 ------- 1 1.0 0.0 4 11
+ 0.23312 0 1 tcp 1040 ------- 1 0.0 1.0 9 16
+ 0.23312 0 1 tcp 1040 ------- 1 0.0 1.0 10 17
- 0.23312 0 1 tcp 1040 ------- 1 0.0 1.0 8 15
r 0.23728 1 0 ack 40 ------- 1 1.0 0.0 5 12
+ 0.23728 0 1 tcp 1040 ------- 1 0.0 1.0 11 18
+ 0.23728 0 1 tcp 1040 ------- 1 0.0 1.0 12 19
- 0.23728 0 1 tcp 1040 ------- 1 0.0 1.0 9 16
r 0.24144 1 0 ack 40 ------- 1 1.0 0.0 6 13
+ 0.24144 0 1 tcp 1040 ------- 1 0.0 1.0 13 20
+ 0.24144 0 1 tcp 1040 ------- 1 0.0 1.0 14 21
- 0.24144 0 1 tcp 1040 ------- 1 0.0 1.0 10 17
- 0.2456 0 1 tcp 1040 ------- 1 0.0 1.0 11 18
- 0.24976 0 1 tcp 1040 ------- 1 0.0 1.0 12 19
r 0.25312 0 1 tcp 1040 ------- 1 0.0 1.0 7 14
+ 0.25312 1 0 ack 40 ------- 1 1.0 0.0 7 22
- 0.25312 1 0 ack 40 ------- 1 1.0 0.0 7 22
- 0.25392 0 1 tcp 1040 ------- 1 0.0 1.0 13 20
r 0.25728 0 1 tcp 1040 ------- 1 0.0 1.0 8 15
+ 0.25728 1 0 ack 40 ------- 1 1.0 0.0 8 23
- 0.25728 1 0 ack 40 ------- 1 1.0 0.0 8 23
- 0.25808 0 1 tcp 1040 ------- 1 0.0 1.0 14 21
r 0.26144 0 1 tcp 1040 ------- 1 0.0 1.0 9 16
+ 0.26144 1 0 ack 40 ------- 1 1.0 0.0 9 24
- 0.26144 1 0 ack 40 ------- 1 1.0 0.0 9 24
r 0.2656 0 1 tcp 1040 ------- 1 0.0 1.0 10 17
+ 0.2656 1 0 ack 40 ------- 1 1.0 0.0 10 25
- 0.2656 1 0 ack 40 ------- 1 1.0 0.0 10 25
r 0.26976 0 1 tcp 1040 ------- 1 0.0 1.0 11 18
+ 0.26976 1 0 ack 40 ------- 1 1.0 0.0 11 26
- 0.26976 1 0 ack 40 ------- 1 1.0 0.0 11 26
r 0.27328 1 0 ack 40 ------- 1 1.0 0.0 7 22
+ 0.27328 0 1 tcp 1040 ------- 1 0.0 1.0 15 27
- 0.27328 0 1 tcp 1040 ------- 1 0.0 1.0 15 27
+ 0.27328 0 1 tcp 1040 ------- 1 0.0 1.0 16 28
r 0.27392 0 1 tcp 1040 ------- 1 0.0 1.0 12 19
+ 0.27392 1 0 ack 40 ------- 1 1.0 0.0 12 29
- 0.27392 1 0 ack 40 ------- 1 1.0 0.0 12 29
r 0.27744 1 0 ack 40 ------- 1 1.0 0.0 8 23
+ 0.27744 0 1 tcp 1040 ------- 1 0.0 1.0 17 30
+ 0.27744 0 1 tcp 1040 ------- 1 0.0 1.0 18 31
- 0.27744 0 1 tcp 1040 ------- 1 0.0 1.0 16 28
r 0.27808 0 1 tcp 1040 ------- 1 0.0 1.0 13 20
+ 0.27808 1 0 ack 40 ------- 1 1.0 0.0 13 32
- 0.27808 1 0 ack 40 ------- 1 1.0 0.0 13 32
r 0.2816 1 0 ack 40 ------- 1 1.0 0.0 9 24
+ 0.2816 0 1 tcp 1040 ------- 1 0.0 1.0 19 33
+ 0.2816 0 1 tcp 1040 ------- 1 0.0 1.0 20 34
- 0.2816 0 1 tcp 1040 ------- 1 0.0 1.0 17 30
r 0.28224 0 1 tcp 1040 ------- 1 0.0 1.0 14 21
+ 0.28224 1 0 ack 40 ------- 1 1.0 0.0 14 35
- 0.28224 1 0 ack 40 ------- 1 1.0 0.0 14 35
r 0.28576 1 0 ack 40 ------- 1 1.0 0.0 10 25
+ 0.28576 0 1 tcp 1040 ------- 1 0.0 1.0 21 36
+ 0.28576 0 1 tcp 1040 ------- 1 0.0 1.0 22 37
- 0.28576 0 1 tcp 1040 ------- 1 0.0 1.0 18 31
r 0.28992 1 0 ack 40 ------- 1 1.0 0.0 11 26
+ 0.28992 0 1 tcp 1040 ------- 1 0.0 1.0 23 38
+ 0.28992 0 1 tcp 1040 ------- 1 0.0 1.0 24 39
- 0.28992 0 1 tcp 1040 ------- 1 0.0 1.0 19 33
r 0.29408 1 0 ack 40 ------- 1 1.0 0.0 12 29
+ 0.29408 0 1 tcp 1040 ------- 1 0.0 1.0 25 40
+ 0.29408 0 1 tcp 1040 ------- 1 0.0 1.0 26 41
- 0.29408 0 1 tcp 1040 ------- 1 0.0 1.0 20 34
r 0.29744 0 1 tcp 1040 ------- 1 0.0 1.0 15 27
+ 0.29744 1 0 ack 40 ------- 1 1.0 0.0 15 42
- 0.29744 1 0 ack 40 ------- 1 1.0 0.0 15 42
r 0.29824 1 0 ack 40 ------- 1 1.0 0.0 13 32
+ 0.29824 0 1 tcp 1040 ------- 1 0.0 1.0 27 43
+ 0.29824 0 1 tcp 1040 ------- 1 0.0 1.0 28 44
- 0.29824 0 1 tcp 1040 ------- 1 0.0 1.0 21 36
r 0.3016 0 1 tcp 1040 ------- 1 0.0 1.0 16 28
+ 0.3016 1 0 ack 40 ------- 1 1.0 0.0 16 45
- 0.3016 1 0 ack 40 ------- 1 1.0 0.0 16 45
r 0.3024 1 0 ack 40 ------- 1 1.0 0.0 14 35
+ 0.3024 0 1 tcp 1040 ------- 1 0.0 1.0 29 46
+ 0.3024 0 1 tcp 1040 ------- 1 0.0 1.0 30 47
- 0.3024 0 1 tcp 1040 ------- 1 0.0 1.0 22 37
r 0.30576 0 1 tcp 1040 ------- 1 0.0 1.0 17 30
+ 0.30576 1 0 ack 40 ------- 1 1.0 0.0 17 48
- 0.30576 1 0 ack 40 ------- 1 1.0 0.0 17 48
- 0.30656 0 1 tcp 1040 ------- 1 0.0 1.0 23 38
r 0.30992 0 1 tcp 1040 ------- 1 0.0 1.0 18 31
+ 0.30992 1 0 ack 40 ------- 1 1.0 0.0 18 49
- 0.30992 1 0 ack 40 ------- 1 1.0 0.0 18 49
- 0.31072 0 1 tcp 1040 ------- 1 0.0 1.0 24 39
r 0.31408 0 1 tcp 1040 ------- 1 0.0 1.0 19 33
+ 0.31408 1 0 ack 40 ------- 1 1.0 0.0 19 50
- 0.31408 1 0 ack 40 ------- 1 1.0 0.0 19 50
- 0.31488 0 1 tcp 1040 ------- 1 0.0 1.0 25 40
r 0.3176 1 0 ack 40 ------- 1 1.0 0.0 15 42
+ 0.3176 0 1 tcp 1040 ------- 1 0.0 1.0 31 51
+ 0.3176 0 1 tcp 1040 ------- 1 0.0 1.0 32 52
r 0.31824 0 1 tcp 1040 ------- 1 0.0 1.0 20 34
+ 0.31824 1 0 ack 40 ------- 1 1.0 0.0 20 53
- 0.31824 1 0 ack 40 ------- 1 1.0 0.0 20 53
- 0.31904 0 1 tcp 1040 ------- 1 0.0 1.0 26 41
r 0.32176 1 0 ack 40 ------- 1 1.0 0.0 16 45
+ 0.32176 0 1 tcp 1040 ------- 1 0.0 1.0 33 54
+ 0.32176 0 1 tcp 1040 ------- 1 0.0 1.0 34 55
r 0.3224 0 1 tcp 1040 ------- 1 0.0 1.0 21 36
+ 0.3224 1 0 ack 40 ------- 1 1.0 0.0 21 56
- 0.3224 1 0 ack 40 ------- 1 1.0 0.0 21 56
- 0.3232 0 1 tcp 1040 ------- 1 0.0 1.0 27 43
r 0.32592 1 0 ack 40 ------- 1 1.0 0.0 17 48
+ 0.32592 0 1 tcp 1040 ------- 1 0.0 1.0 35 57
+ 0.32592 0 1 tcp 1040 ------- 1 0.0 1.0 36 58
r 0.32656 0 1 tcp 1040 ------- 1 0.0 1.0 22 37
+ 0.32656 1 0 ack 40 ------- 1 1.0 0.0 22 59
- 0.32656 1 0 ack 40 ------- 1 1.0 0.0 22 59
- 0.32736 0 1 tcp 1040 ------- 1 0.0 1.0 28 44
r 0.33008 1 0 ack 40 ------- 1 1.0 0.0 18 49
+ 0.33008 0 1 tcp 1040 ------- 1 0.0 1.0 37 60
+ 0.33008 0 1 tcp 1040 ------- 1 0.0 1.0 38 61
d 0.33008 0 1 tcp 1040 ------- 1 0.0 1.0 38 61
r 0.33072 0 1 tcp 1040 ------- 1 0.0 1.0 23 38
+ 0.33072 1 0 ack 40 ------- 1 1.0 0.0 23 62
- 0.33072 1 0 ack 40 ------- 1 1.0 0.0 23 62
- 0.33152 0 1 tcp 1040 ------- 1 0.0 1.0 29 46
r 0.33424 1 0 ack 40 ------- 1 1.0 0.0 19 50
+ 0.33424 0 1 tcp 1040 ------- 1 0.0 1.0 39 63
r 0.33488 0 1 tcp 1040 ------- 1 0.0 1.0 24 39
+ 0.33488 1 0 ack 40 ------- 1 1.0 0.0 24 64
- 0.33488 1 0 ack 40 ------- 1 1.0 0.0 24 64
- 0.33568 0 1 tcp 1040 ------- 1 0.0 1.0 30 47
r 0.3384 1 0 ack 40 ------- 1 1.0 0.0 20 53
+ 0.3384 0 1 tcp 1040 ------- 1 0.0 1.0 40 65
r 0.33904 0 1 tcp 1040 ------- 1 0.0 1.0 25 40
+ 0.33904 1 0 ack 40 ------- 1 1.0 0.0 25 66
- 0.33904 1 0 ack 40 ------- 1 1.0 0.0 25 66
- 0.33984 0 1 tcp 1040 ------- 1 0.0 1.0 31 51
r 0.34256 1 0 ack 40 ------- 1 1.0 0.0 21 56
+ 0.34256 0 1 tcp 1040 ------- 1 0.0 1.0 41 67
r 0.3432 0 1 tcp 1040 ------- 1 0.0 1.0 26 41
+ 0.3432 1 0 ack 40 ------- 1 1.0 0.0 26 68
- 0.3432 1 0 ack 40 ------- 1 1.0 0.0 26 68
- 0.344 0 1 tcp 1040 ------- 1 0.0 1.0 32 52
r 0.34672 1 0 ack 40 ------- 1 1.0 0.0 22 59
+ 0.34672 0 1 tcp 1040 ------- 1 0.0 1.0 42 69
r 0.34736 0 1 tcp 1040 ------- 1 0.0 1.0 27 43
+ 0.34736 1 0 ack 40 ------- 1 1.0 0.0 27 70
- 0.34736 1 0 ack 40 ------- 1 1.0 0.0 27 70
- 0.34816 0 1 tcp 1040 ------- 1 0.0 1.0 33 54
r 0.35088 1 0 ack 40 ------- 1 1.0 0.0 23 62
+ 0.35088 0 1 tcp 1040 ------- 1 0.0 1.0 43 71
r 0.35152 0 1 tcp 1040 ------- 1 0.0 1.0 28 44
+ 0.35152 1 0 ack 40 ------- 1 1.0 0.0 28 72
- 0.35152 1 0 ack 40 ------- 1 1.0 0.0 28 72
- 0.35232 0 1 tcp 1040 ------- 1 0.0 1.0 34 55
r 0.35504 1 0 ack 40 ------- 1 1.0 0.0 24 64
+ 0.35504 0 1 tcp 1040 ------- 1 0.0 1.0 44 73
r 0.35568 0 1 tcp 1040 ------- 1 0.0 1.0 29 46
+ 0.35568 1 0 ack 40 ------- 1 1.0 0.0 29 74
- 0.35568 1 0 ack 40 ------- 1 1.0 0.0 29 74
- 0.35648 0 1 tcp 1040 ------- 1 0.0 1.0 35 57
r 0.3592 1 0 ack 40 ------- 1 1.0 0.0 25 66
+ 0.3592 0 1 tcp 1040 ------- 1 0.0 1.0 45 75
r 0.35984 0 1 tcp 1040 ------- 1 0.0 1.0 30 47
+ 0.35984 1 0 ack 40 ------- 1 1.0 0.0 30 76
- 0.35984 1 0 ack 40 ------- 1 1.0 0.0 30 76
- 0.36064 0 1 tcp 1040 ------- 1 0.0 1.0 36 58
r 0.36336 1 0 ack 40 ------- 1 1.0 0.0 26 68
+ 0.36336 0 1 tcp 1040 ------- 1 0.0 1.0 46 77
r 0.364 0 1 tcp 1040 ------- 1 0.0 1.0 31 51
+ 0.364 1 0 ack 40 ------- 1 1.0 0.0 31 78
- 0.364 1 0 ack 40 ------- 1 1.0 0.0 31 78
- 0.3648 0 1 tcp 1040 ------- 1 0.0 1.0 37 60
r 0.36752 1 0 ack 40 ------- 1 1.0 0.0 27 70
+ 0.36752 0 1 tcp 1040 ------- 1 0.0 1.0 47 79
r 0.36816 0 1 tcp 1040 ------- 1 0.0 1.0 32 52
+ 0.36816 1 0 ack 40 ------- 1 1.0 0.0 32 80
- 0.36816 1 0 ack 40 ------- 1 1.0 0.0 32 80
- 0.36896 0 1 tcp 1040 ------- 1 0.0 1.0 39 63
r 0.37168 1 0 ack 40 ------- 1 1.0 0.0 28 72
+ 0.37168 0 1 tcp 1040 ------- 1 0.0 1.0 48 81
r 0.37232 0 1 tcp 1040 ------- 1 0.0 1.0 33 54
+ 0.37232 1 0 ack 40 ------- 1 1.0 0.0 33 82
- 0.37232 1 0 ack 40 ------- 1 1.0 0.0 33 82
- 0.37312 0 1 tcp 1040 ------- 1 0.0 1.0 40 65
r 0.37584 1 0 ack 40 ------- 1 1.0 0.0 29 74
+ 0.37584 0 1 tcp 1040 ------- 1 0.0 1.0 49 83
r 0.37648 0 1 tcp 1040 ------- 1 0.0 1.0 34 55
+ 0.37648 1 0 ack 40 ------- 1 1.0 0.0 34 84
- 0.37648 1 0 ack 40 ------- 1 1.0 0.0 34 84
- 0.37728 0 1 tcp 1040 ------- 1 0.0 1.0 41 67
r 0.38 1 0 ack 40 ------- 1 1.0 0.0 30 76
+ 0.38 0 1 tcp 1040 ------- 1 0.0 1.0 50 85
r 0.38064 0 1 tcp 1040 ------- 1 0.0 1.0 35 57
+ 0.38064 1 0 ack 40 ------- 1 1.0 0.0 35 86
- 0.38064 1 0 ack 40 ------- 1 1.0 0.0 35 86
- 0.38144 0 1 tcp 1040 ------- 1 0.0 1.0 42 69
r 0.38416 1 0 ack 40 ------- 1 1.0 0.0 31 78
+ 0.38416 0 1 tcp 1040 ------- 1 0.0 1.0 51 87
r 0.3848 0 1 tcp 1040 ------- 1 0.0 1.0 36 58
+ 0.3848 1 0 ack 40 ------- 1 1.0 0.0 36 88
- 0.3848 1 0 ack 40 ------- 1 1.0 0.0 36 88
- 0.3856 0 1 tcp 1040 ------- 1 0.0 1.0 43 71
r 0.38832 1 0 ack 40 ------- 1 1.0 0.0 32 80
+ 0.38832 0 1 tcp 1040 ------- 1 0.0 1.0 52 89
r 0.38896 0 1 tcp 1040 ------- 1 0.0 1.0 37 60
+ 0.38896 1 0 ack 40 ------- 1 1.0 0.0 37 90
- 0.38896 1 0 ack 40 ------- 1 1.0 0.0 37 90
- 0.38976 0 1 tcp 1040 ------- 1 0.0 1.0 44 73
r 0.39248 1 0 ack 40 ------- 1 1.0 0.0 33 82
+ 0.39248 0 1 tcp 1040 ------- 1 0.0 1.0 53 91
r 0.39312 0 1 tcp 1040 ------- 1 0.0 1.0 39 63
+ 0.39312 1 0 ack 40 ------- 1 1.0 0.0 37 92
- 0.39312 1 0 ack 40 ------- 1 1.0 0.0 37 92
- 0.39392 0 1 tcp 1040 ------- 1 0.0 1.0 45 75
r 0.39664 1 0 ack 40 ------- 1 1.0 0.0 34 84
+ 0.39664 0 1 tcp 1040 ------- 1 0.0 1.0 54 93
r 0.39728 0 1 tcp 1040 ------- 1 0.0 1.0 40 65
+ 0.39728 1 0 ack 40 ------- 1 1.0 0.0 37 94
- 0.39728 1 0 ack 40 ------- 1 1.0 0.0 37 94
- 0.39808 0 1 tcp 1040 ------- 1 0.0 1.0 46 77
r 0.4008 1 0 ack 40 ------- 1 1.0 0.0 35 86
+ 0.4008 0 1 tcp 1040 ------- 1 0.0 1.0 55 95
r 0.40144 0 1 tcp 1040 ------- 1 0.0 1.0 41 67
+ 0.40144 1 0 ack 40 ------- 1 1.0 0.0 37 96
- 0.40144 1 0 ack 40 ------- 1 1.0 0.0 37 96
- 0.40224 0 1 tcp 1040 ------- 1 0.0 1.0 47 79
r 0.40496 1 0 ack 40 ------- 1 1.0 0.0 36 88
+ 0.40496 0 1 tcp 1040 ------- 1 0.0 1.0 56 97
r 0.4056 0 1 tcp 1040 ------- 1 0.0 1.0 42 69
+ 0.4056 1 0 ack 40 ------- 1 1.0 0.0 37 98
- 0.4056 1 0 ack 40 ------- 1 1.0 0.0 37 98
- 0.4064 0 1 tcp 1040 ------- 1 0.0 1.0 48 81
r 0.40912 1 0 ack 40 ------- 1 1.0 0.0 37 90
+ 0.40912 0 1 tcp 1040 ------- 1 0.0 1.0 57 99
r 0.40976 0 1 tcp 1040 ------- 1 0.0 1.0 43 71
+ 0.40976 1 0 ack 40 ------- 1 1.0 0.0 37 100
- 0.40976 1 0 ack 40 ------- 1 1.0 0.0 37 100
- 0.41056 0 1 tcp 1040 ------- 1 0.0 1.0 49 83
r 0.41328 1 0 ack 40 ------- 1 1.0 0.0 37 92
r 0.41392 0 1 tcp 1040 ------- 1 0.0 1.0 44 73
+ 0.41392 1 0 ack 40 ------- 1 1.0 0.0 37 101
- 0.41392 1 0 ack 40 ------- 1 1.0 0.0 37 101
- 0.41472 0 1 tcp 1040 ------- 1 0.0 1.0 50 85
r 0.41744 1 0 ack 40 ------- 1 1.0 0.0 37 94
r 0.41808 0 1 tcp 1040 ------- 1 0.0 1.0 45 75
+ 0.41808 1 0 ack 40 ------- 1 1.0 0.0 37 102
- 0.41808 1 0 ack 40 ------- 1 1.0 0.0 37 102
- 0.41888 0 1 tcp 1040 ------- 1 0.0 1.0 51 87
r 0.4216 1 0 ack 40 ------- 1 1.0 0.0 37 96
+ 0.4216 0 1 tcp 1040 ---A--- 1 0.0 1.0 38 103
r 0.42224 0 1 tcp 1040 ------- 1 0.0 1.0 46 77
+ 0.42224 1 0 ack 40 ------- 1 1.0 0.0 37 104
- 0.42224 1 0 ack 40 ------- 1 1.0 0.0 37 104
- 0.42304 0 1 tcp 1040 ------- 1 0.0 1.0 52 89
r 0.42576 1 0 ack 40 ------- 1 1.0 0.0 37 98
r 0.4264 0 1 tcp 1040 ------- 1 0.0 1.0 47 79
+ 0.4264 1 0 ack 40 ------- 1 1.0 0.0 37 105
- 0.4264 1 0 ack 40 ------- 1 1.0 0.0 37 105
- 0.4272 0 1 tcp 1040 ------- 1 0.0 1.0 53 91
r 0.42992 1 0 ack 40 ------- 1 1.0 0.0 37 100
r 0.43056 0 1 tcp 1040 ------- 1 0.0 1.0 48 81
+ 0.43056 1 0 ack 40 ------- 1 1.0 0.0 37 106
- 0.43056 1 0 ack 40 ------- 1 1.0 0.0 37 106
- 0.43136 0 1 tcp 1040 ------- 1 0.0 1.0 54 93
r 0.43408 1 0 ack 40 ------- 1 1.0 0.0 37 101
r 0.43472 0 1 tcp 1040 ------- 1 0.0 1.0 49 83
+ 0.43472 1 0 ack 40 ------- 1 1.0 0.0 37 107
- 0.43472 1 0 ack 40 ------- 1 1.0 0.0 37 107
- 0.43552 0 1 tcp 1040 ------- 1 0.0 1.0 55 95
r 0.43824 1 0 ack 40 ------- 1 1.0 0.0 37 102
r 0.43888 0 1 tcp 1040 ------- 1 0.0 1.0 50 85
+ 0.43888 1 0 ack 40 ------- 1 1.0 0.0 37 108
- 0.43888 1 0 ack 40 ------- 1 1.0 0.0 37 108
- 0.43968 0 1 tcp 1040 ------- 1 0.0 1.0 56 97
r 0.4424 1 0 ack 40 ------- 1 1.0 0.0 37 104
r 0.44304 0 1 tcp 1040 ------- 1 0.0 1.0 51 87
+ 0.44304 1 0 ack 40 ------- 1 1.0 0.0 37 109
- 0.44304 1 0 ack 40 ------- 1 1.0 0.0 37 109
- 0.44384 0 1 tcp 1040 ------- 1 0.0 1.0 57 99
r 0.44656 1 0 ack 40 ------- 1 1.0 0.0 37 105
r 0.4472 0 1 tcp 1040 ------- 1 0.0 1.0 52 89
+ 0.4472 1 0 ack 40 ------- 1 1.0 0.0 37 110
- 0.4472 1 0 ack 40 ------- 1 1.0 0.0 37 110
- 0.448 0 1 tcp 1040 ---A--- 1 0.0 1.0 38 103
r 0.45072 1 0 ack 40 ------- 1 1.0 0.0 37 106
r 0.45136 0 1 tcp 1040 ------- 1 0.0 1.0 53 91
+ 0.45136 1 0 ack 40 ------- 1 1.0 0.0 37 111
- 0.45136 1 0 ack 40 ------- 1 1.0 0.0 37 111
r 0.45488 1 0 ack 40 ------- 1 1.0 0.0 37 107
r 0.45552 0 1 tcp 1040 ------- 1 0.0 1.0 54 93
+ 0.45552 1 0 ack 40 ------- 1 1.0 0.0 37 112
- 0.45552 1 0 ack 40 ------- 1 1.0 0.0 37 112
r 0.45904 1 0 ack 40 ------- 1 1.0 0.0 37 108
r 0.45968 0 1 tcp 1040 ------- 1 0.0 1.0 55 95
+ 0.45968 1 0 ack 40 ------- 1 1.0 0.0 37 113
- 0.45968 1 0 ack 40 ------- 1 1.0 0.0 37 113
r 0.4632 1 0 ack 40 ------- 1 1.0 0.0 37 109
r 0.46384 0 1 tcp 1040 ------- 1 0.0 1.0 56 97
+ 0.46384 1 0 ack 40 ------- 1 1.0 0.0 37 114
- 0.46384 1 0 ack 40 ------- 1 1.0 0.0 37 114
r 0.46736 1 0 ack 40 ------- 1 1.0 0.0 37 110
r 0.468 0 1 tcp 1040 ------- 1 0.0 1.0 57 99
+ 0.468 1 0 ack 40 ------- 1 1.0 0.0 37 115
- 0.468 1 0 ack 40 ------- 1 1.0 0.0 37 115
r 0.47152 1 0 ack 40 ------- 1 1.0 0.0 37 111
r 0.47216 0 1 tcp 1040 ---A--- 1 0.0 1.0 38 103
+ 0.47216 1 0 ack 40 ------- 1 1.0 0.0 57 116
- 0.47216 1 0 ack 40 ------- 1 1.0 0.0 57 116
r 0.47568 1 0 ack 40 ------- 1 1.0 0.0 37 112
r 0.47984 1 0 ack 40 ------- 1 1.0 0.0 37 113
r 0.484 1 0 ack 40 ------- 1 1.0 0.0 37 114
r 0.48816 1 0 ack 40 ------- 1 1.0 0.0 37 115
r 0.49232 1 0 ack 40 ------- 1 1.0 0.0 57 116
+ 0.49232 0 1 tcp 1040 ------- 1 0.0 1.0 58 117
- 0.49232 0 1 tcp 1040 ------- 1 0.0 1.0 58 117
+ 0.49232 0 1 tcp 1040 ------- 1 0.0 1.0 59 118
- 0.49648 0 1 tcp 1040 ------- 1 0.0 1.0 59 118
r 0.51648 0 1 tcp 1040 ------- 1 0.0 1.0 58 117
+ 0.51648 1 0 ack 40 ------- 1 1.0 0.0 58 119
- 0.51648 1 0 ack 40 ------- 1 1.0 0.0 58 119
r 0.52064 0 1 tcp 1040 ------- 1 0.0 1.0 59 118
+ 0.52064 1 0 ack 40 ------- 1 1.0 0.0 59 120
- 0.52064 1 0 ack 40 ------- 1 1.0 0.0 59 120
r 0.53664 1 0 ack 40 ------- 1 1.0 0.0 58 119
+ 0.53664 0 1 tcp 1040 ------- 1 0.0 1.0 60 121
- 0.53664 0 1 tcp 1040 ------- 1 0.0 1.0 60 121
+ 0.53664 0 1 tcp 1040 ------- 1 0.0 1.0 61 122
r 0.5408 1 0 ack 40 ------- 1 1.0 0.0 59 120
+ 0.5408 0 1 tcp 1040 ------- 1 0.0 1.0 62 123
+ 0.5408 0 1 tcp 1040 ------- 1 0.0 1.0 63 124
- 0.5408 0 1 tcp 1040 ------- 1 0.0 1.0 61 122
- 0.54496 0 1 tcp 1040 ------- 1 0.0 1.0 62 123
- 0.54912 0 1 tcp 1040 ------- 1 0.0 1.0 63 124
r 0.5608 0 1 tcp 1040 ------- 1 0.0 1.0 60 121
+ 0.5608 1 0 ack 40 ------- 1 1.0 0.0 60 125
- 0.5608 1 0 ack 40 ------- 1 1.0 0.0 60 125
r 0.56496 0 1 tcp 1040 ------- 1 0.0 1.0 61 122
+ 0.56496 1 0 ack 40 ------- 1 1.0 0.0 61 126
- 0.56496 1 0 ack 40 ------- 1 1.0 0.0 61 126
r 0.56912 0 1 tcp 1040 ------- 1 0.0 1.0 62 123
+ 0.56912 1 0 ack 40 ------- 1 1.0 0.0 62 127
- 0.56912 1 0 ack 40 ------- 1 1.0 0.0 62 127
r 0.57328 0 1 tcp 1040 ------- 1 0.0 1.0 63 124
+ 0.57328 1 0 ack 40 ------- 1 1.0 0.0 63 128
- 0.57328 1 0 ack 40 ------- 1 1.0 0.0 63 128
r 0.58096 1 0 ack 40 ------- 1 1.0 0.0 60 125
+ 0.58096 0 1 tcp 1040 ------- 1 0.0 1.0 64 129
- 0.58096 0 1 tcp 1040 ------- 1 0.0 1.0 64 129
+ 0.58096 0 1 tcp 1040 ------- 1 0.0 1.0 65 130
r 0.58512 1 0 ack 40 ------- 1 1.0 0.0 61 126
+ 0.58512 0 1 tcp 1040 ------- 1 0.0 1.0 66 131
+ 0.58512 0 1 tcp 1040 ------- 1 0.0 1.0 67 132
- 0.58512 0 1 tcp 1040 ------- 1 0.0 1.0 65 130
r 0.58928 1 0 ack 40 ------- 1 1.0 0.0 62 127
+ 0.58928 0 1 tcp 1040 ------- 1 0.0 1.0 68 133
+ 0.58928 0 1 tcp 1040 ------- 1 0.0 1.0 69 134
- 0.58928 0 1 tcp 1040 ------- 1 0.0 1.0 66 131
r 0.59344 1 0 ack 40 ------- 1 1.0 0.0 63 128
+ 0.59344 0 1 tcp 1040 ------- 1 0.0 1.0 70 135
+ 0.59344 0 1 tcp 1040 ------- 1 0.0 1.0 71 136
- 0.59344 0 1 tcp 1040 ------- 1 0.0 1.0 67 132
- 0.5976 0 1 tcp 1040 ------- 1 0.0 1.0 68 133
- 0.60176 0 1 tcp 1040 ------- 1 0.0 1.0 69 134
r 0.60512 0 1 tcp 1040 ------- 1 0.0 1.0 64 129
+ 0.60512 1 0 ack 40 ------- 1 1.0 0.0 64 137
- 0.60512 1 0 ack 40 ------- 1 1.0 0.0 64 137
- 0.60592 0 1 tcp 1040 ------- 1 0.0 1.0 70 135
r 0.60928 0 1 tcp 1040 ------- 1 0.0 1.0 65 130
+ 0.60928 1 0 ack 40 ------- 1 1.0 0.0 65 138
- 0.60928 1 0 ack 40 ------- 1 1.0 0.0 65 138
- 0.61008 0 1 tcp 1040 ------- 1 0.0 1.0 71 136
r 0.61344 0 1 tcp 1040 ------- 1 0.0 1.0 66 131
+ 0.61344 1 0 ack 40 ------- 1 1.0 0.0 66 139
- 0.61344 1 0 ack 40 ------- 1 1.0 0.0 66 139
r 0.6176 0 1 tcp 1040 ------- 1 0.0 1.0 67 132
+ 0.6176 1 0 ack 40 ------- 1 1.0 0.0 67 140
- 0.6176 1 0 ack 40 ------- 1 1.0 0.0 67 140
r 0.62176 0 1 tcp 1040 ------- 1 0.0 1.0 68 133
+ 0.62176 1 0 ack 40 ------- 1 1.0 0.0 68 141
- 0.62176 1 0 ack 40 ------- 1 1.0 0.0 68 141
r 0.62528 1 0 ack 40 ------- 1 1.0 0.0 64 137
+ 0.62528 0 1 tcp 1040 ------- 1 0.0 1.0 72 142
- 0.62528 0 1 tcp 1040 ------- 1 0.0 1.0 72 142
+ 0.62528 0 1 tcp 1040 ------- 1 0.0 1.0 73 143
r 0.62592 0 1 tcp 1040 ------- 1 0.0 1.0 69 134
+ 0.62592 1 0 ack 40 ------- 1 1.0 0.0 69 144
- 0.62592 1 0 ack 40 ------- 1 1.0 0.0 69 144
r 0.62944 1 0 ack 40 ------- 1 1.0 0.0 65 138
+ 0.62944 0 1 tcp 1040 ------- 1 0.0 1.0 74 145
+ 0.62944 0 1 tcp 1040 ------- 1 0.0 1.0 75 146
- 0.62944 0 1 tcp 1040 ------- 1 0.0 1.0 73 143
r 0.63008 0 1 tcp 1040 ------- 1 0.0 1.0 70 135
+ 0.63008 1 0 ack 40 ------- 1 1.0 0.0 70 147
- 0.63008 1 0 ack 40 ------- 1 1.0 0.0 70 147
r 0.6336 1 0 ack 40 ------- 1 1.0 0.0 66 139
+ 0.6336 0 1 tcp 1040 ------- 1 0.0 1.0 76 148
- 0.6336 0 1 tcp 1040 ------- 1 0.0 1.0 74 145
r 0.63424 0 1 tcp 1040 ------- 1 0.0 1.0 71 136
+ 0.63424 1 0 ack 40 ------- 1 1.0 0.0 71 149
- 0.63424 1 0 ack 40 ------- 1 1.0 0.0 71 149
r 0.63776 1 0 ack 40 ------- 1 1.0 0.0 67 140
+ 0.63776 0 1 tcp 1040 ------- 1 0.0 1.0 77 150
- 0.63776 0 1 tcp 1040 ------- 1 0.0 1.0 75 146
r 0.64192 1 0 ack 40 ------- 1 1.0 0.0 68 141
+ 0.64192 0 1 tcp 1040 ------- 1 0.0 1.0 78 151
- 0.64192 0 1 tcp 1040 ------- 1 0.0 1.0 76 148
r 0.64608 1 0 ack 40 ------- 1 1.0 0.0 69 144
+ 0.64608 0 1 tcp 1040 ------- 1 0.0 1.0 79 152
- 0.64608 0 1 tcp 1040 ------- 1 0.0 1.0 77 150
r 0.64944 0 1 tcp 1040 ------- 1 0.0 1.0 72 142
+ 0.64944 1 0 ack 40 ------- 1 1.0 0.0 72 153
- 0.64944 1 0 ack 40 ------- 1 1.0 0.0 72 153
r 0.65024 1 0 ack 40 ------- 1 1.0 0.0 70 147
+ 0.65024 0 1 tcp 1040 ------- 1 0.0 1.0 80 154
- 0.65024 0 1 tcp 1040 ------- 1 0.0 1.0 78 151
r 0.6536 0 1 tcp 1040 ------- 1 0.0 1.0 73 143
+ 0.6536 1 0 ack 40 ------- 1 1.0 0.0 73 155
- 0.6536 1 0 ack 40 ------- 1 1.0 0.0 73 155
r 0.6544 1 0 ack 40 ------- 1 1.0 0.0 71 149
+ 0.6544 0 1 tcp 1040 ------- 1 0.0 1.0 81 156
- 0.6544 0 1 tcp 1040 ------- 1 0.0 1.0 79 152
r 0.65776 0 1 tcp 1040 ------- 1 0.0 1.0 74 145
+ 0.65776 1 0 ack 40 ------- 1 1.0 0.0 74 157
- 0.65776 1 0 ack 40 ------- 1 1.0 0.0 74 157
- 0.65856 0 1 tcp 1040 ------- 1 0.0 1.0 80 154
r 0.66192 0 1 tcp 1040 ------- 1 0.0 1.0 75 146
+ 0.66192 1 0 ack 40 ------- 1 1.0 0.0 75 158
- 0.66192 1 0 ack 40 ------- 1 1.0 0.0 75 158
- 0.66272 0 1 tcp 1040 ------- 1 0.0 1.0 81 156
r 0.66608 0 1 tcp 1040 ------- 1 0.0 1.0 76 148
+ 0.66608 1 0 ack 40 ------- 1 1.0 0.0 76 159
- 0.66608 1 0 ack 40 ------- 1 1.0 0.0 76 159
r 0.6696 1 0 ack 40 ------- 1 1.0 0.0 72 153
+ 0.6696 0 1 tcp 1040 ------- 1 0.0 1.0 82 160
- 0.6696 0 1 tcp 1040 ------- 1 0.0 1.0 82 160
r 0.67024 0 1 tcp 1040 ------- 1 0.0 1.0 77 150
+ 0.67024 1 0 ack 40 ------- 1 1.0 0.0 77 161
- 0.67024 1 0 ack 40 ------- 1 1.0 0.0 77 161
r 0.67376 1 0 ack 40 ------- 1 1.0 0.0 73 155
+ 0.67376 0 1 tcp 1040 ------- 1 0.0 1.0 83 162
- 0.67376 0 1 tcp 1040 ------- 1 0.0 1.0 83 162
r 0.6744 0 1 tcp 1040 ------- 1 0.0 1.0 78 151
+ 0.6744 1 0 ack 40 ------- 1 1.0 0.0 78 163
- 0.6744 1 0 ack 40 ------- 1 1.0 0.0 78 163
r 0.67792 1 0 ack 40 ------- 1 1.0 0.0 74 157
+ 0.67792 0 1 tcp 1040 ------- 1 0.0 1.0 84 164
- 0.67792 0 1 tcp 1040 ------- 1 0.0 1.0 84 164
r 0.67856 0 1 tcp 1040 ------- 1 0.0 1.0 79 152
+ 0.67856 1 0 ack 40 ------- 1 1.0 0.0 79 165
- 0.67856 1 0 ack 40 ------- 1 1.0 0.0 79 165
r 0.68208 1 0 ack 40 ------- 1 1.0 0.0 75 158
+ 0.68208 0 1 tcp 1040 ------- 1 0.0 1.0 85 166
- 0.68208 0 1 tcp 1040 ------- 1 0.0 1.0 85 166
r 0.68272 0 1 tcp 1040 ------- 1 0.0 1.0 80 154
+ 0.68272 1 0 ack 40 ------- 1 1.0 0.0 80 167
- 0.68272 1 0 ack 40 ------- 1 1.0 0.0 80 167
r 0.68624 1 0 ack 40 ------- 1 1.0 0.0 76 159
+ 0.68624 0 1 tcp 1040 ------- 1 0.0 1.0 86 168
+ 0.68624 0 1 tcp 1040 ------- 1 0.0 1.0 87 169
- 0.68624 0 1 tcp 1040 ------- 1 0.0 1.0 86 168
r 0.68688 0 1 tcp 1040 ------- 1 0.0 1.0 81 156
+ 0.68688 1 0 ack 40 ------- 1 1.0 0.0 81 170
- 0.68688 1 0 ack 40 ------- 1 1.0 0.0 81 170
r 0.6904 1 0 ack 40 ------- 1 1.0 0.0 77 161
+ 0.6904 0 1 tcp 1040 ------- 1 0.0 1.0 88 171
- 0.6904 0 1 tcp 1040 ------- 1 0.0 1.0 87 169
r 0.69376 0 1 tcp 1040 ------- 1 0.0 1.0 82 160
+ 0.69376 1 0 ack 40 ------- 1 1.0 0.0 82 172
- 0.69376 1 0 ack 40 ------- 1 1.0 0.0 82 172
r 0.69456 1 0 ack 40 ------- 1 1.0 0.0 78 163
+ 0.69456 0 1 tcp 1040 ------- 1 0.0 1.0 89 173
- 0.69456 0 1 tcp 1040 ------- 1 0.0 1.0 88 171
r 0.69792 0 1 tcp 1040 ------- 1 0.0 1.0 83 162
+ 0.69792 1 0 ack 40 ------- 1 1.0 0.0 83 174
- 0.69792 1 0 ack 40 ------- 1 1.0 0.0 83 174
r 0.69872 1 0 ack 40 ------- 1 1.0 0.0 79 165
+ 0.69872 0 1 tcp 1040 ------- 1 0.0 1.0 90 175
- 0.69872 0 1 tcp 1040 ------- 1 0.0 1.0 89 173
r 0.70208 0 1 tcp 1040 ------- 1 0.0 1.0 84 164
+ 0.70208 1 0 ack 40 ------- 1 1.0 0.0 84 176
- 0.70208 1 0 ack 40 ------- 1 1.0 0.0 84 176
r 0.70288 1 0 ack 40 ------- 1 1.0 0.0 80 167
+ 0.70288 0 1 tcp 1040 ------- 1 0.0 1.0 91 177
- 0.70288 0 1 tcp 1040 ------- 1 0.0 1.0 90 175
r 0.70624 0 1 tcp 1040 ------- 1 0.0 1.0 85 166
+ 0.70624 1 0 ack 40 ------- 1 1.0 0.0 85 178
- 0.70624 1 0 ack 40 ------- 1 1.0 0.0 85 178
r 0.70704 1 0 ack 40 ------- 1 1.0 0.0 81 170
+ 0.70704 0 1 tcp 1040 ------- 1 0.0 1.0 92 179
- 0.70704 0 1 tcp 1040 ------- 1 0.0 1.0 91 177
r 0.7104 0 1 tcp 1040 ------- 1 0.0 1.0 86 168
+ 0.7104 1 0 ack 40 ------- 1 1.0 0.0 86 180
- 0.7104 1 0 ack 40 ------- 1 1.0 0.0 86 180
- 0.7112 0 1 tcp 1040 ------- 1 0.0 1.0 92 179
r 0.71392 1 0 ack 40 ------- 1 1.0 0.0 82 172
+ 0.71392 0 1 tcp 1040 ------- 1 0.0 1.0 93 181
r 0.71456 0 1 tcp 1040 ------- 1 0.0 1.0 87 169
+ 0.71456 1 0 ack 40 ------- 1 1.0 0.0 87 182
- 0.71456 1 0 ack 40 ------- 1 1.0 0.0 87 182
- 0.71536 0 1 tcp 1040 ------- 1 0.0 1.0 93 181
r 0.71808 1 0 ack 40 ------- 1 1.0 0.0 83 174
+ 0.71808 0 1 tcp 1040 ------- 1 0.0 1.0 94 183
r 0.71872 0 1 tcp 1040 ------- 1 0.0 1.0 88 171
+ 0.71872 1 0 ack 40 ------- 1 1.0 0.0 88 184
- 0.71872 1 0 ack 40 ------- 1 1.0 0.0 88 184
- 0.71952 0 1 tcp 1040 ------- 1 0.0 1.0 94 183
r 0.72224 1 0 ack 40 ------- 1 1.0 0.0 84 176
+ 0.72224 0 1 tcp 1040 ------- 1 0.0 1.0 95 185
r 0.72288 0 1 tcp 1040 ------- 1 0.0 1.0 89 173
+ 0.72288 1 0 ack 40 ------- 1 1.0 0.0 89 186
- 0.72288 1 0 ack 40 ------- 1 1.0 0.0 89 186
- 0.72368 0 1 tcp 1040 ------- 1 0.0 1.0 95 185
r 0.7264 1 0 ack 40 ------- 1 1.0 0.0 85 178
+ 0.7264 0 1 tcp 1040 ------- 1 0.0 1.0 96 187
r 0.72704 0 1 tcp 1040 ------- 1 0.0 1.0 90 175
+ 0.72704 1 0 ack 40 ------- 1 1.0 0.0 90 188
- 0.72704 1 0 ack 40 ------- 1 1.0 0.0 90 188
- 0.72784 0 1 tcp 1040 ------- 1 0.0 1.0 96 187
r 0.73056 1 0 ack 40 ------- 1 1.0 0.0 86 180
+ 0.73056 0 1 tcp 1040 ------- 1 0.0 1.0 97 189
r 0.7312 0 1 tcp 1040 ------- 1 0.0 1.0 91 177
+ 0.7312 1 0 ack 40 ------- 1 1.0 0.0 91 190
- 0.7312 1 0 ack 40 ------- 1 1.0 0.0 91 190
- 0.732 0 1 tcp 1040 ------- 1 0.0 1.0 97 189
r 0.73472 1 0 ack 40 ------- 1 1.0 0.0 87 182
+ 0.73472 0 1 tcp 1040 ------- 1 0.0 1.0 98 191
+ 0.73472 0 1 tcp 1040 ------- 1 0.0 1.0 99 192
r 0.73536 0 1 tcp 1040 ------- 1 0.0 1.0 92 179
+ 0.73536 1 0 ack 40 ------- 1 1.0 0.0 92 193
- 0.73536 1 0 ack 40 ------- 1 1.0 0.0 92 193
- 0.73616 0 1 tcp 1040 ------- 1 0.0 1.0 98 191
r 0.73888 1 0 ack 40 ------- 1 1.0 0.0 88 184
+ 0.73888 0 1 tcp 1040 ------- 1 0.0 1.0 100 194
r 0.73952 0 1 tcp 1040 ------- 1 0.0 1.0 93 181
+ 0.73952 1 0 ack 40 ------- 1 1.0 0.0 93 195
- 0.73952 1 0 ack 40 ------- 1 1.0 0.0 93 195
- 0.74032 0 1 tcp 1040 ------- 1 0.0 1.0 99 192
r 0.74304 1 0 ack 40 ------- 1 1.0 0.0 89 186
+ 0.74304 0 1 tcp 1040 ------- 1 0.0 1.0 101 196
r 0.74368 0 1 tcp 1040 ------- 1 0.0 1.0 94 183
+ 0.74368 1 0 ack 40 ------- 1 1.0 0.0 94 197
- 0.74368 1 0 ack 40 ------- 1 1.0 0.0 94 197
- 0.74448 0 1 tcp 1040 ------- 1 0.0 1.0 100 194
r 0.7472 1 0 ack 40 ------- 1 1.0 0.0 90 188
+ 0.7472 0 1 tcp 1040 ------- 1 0.0 1.0 102 198
r 0.74784 0 1 tcp 1040 ------- 1 0.0 1.0 95 185
+ 0.74784 1 0 ack 40 ------- 1 1.0 0.0 95 199
- 0.74784 1 0 ack 40 ------- 1 1.0 0.0 95 199
- 0.74864 0 1 tcp 1040 ------- 1 0.0 1.0 101 196
r 0.75136 1 0 ack 40 ------- 1 1.0 0.0 91 190
+ 0.75136 0 1 tcp 1040 ------- 1 0.0 1.0 103 200
r 0.752 0 1 tcp 1040 ------- 1 0.0 1.0 96 187
+ 0.752 1 0 ack 40 ------- 1 1.0 0.0 96 201
- 0.752 1 0 ack 40 ------- 1 1.0 0.0 96 201
- 0.7528 0 1 tcp 1040 ------- 1 0.0 1.0 102 198
r 0.75552 1 0 ack 40 ------- 1 1.0 0.0 92 193
+ 0.75552 0 1 tcp 1040 ------- 1 0.0 1.0 104 202
r 0.75616 0 1 tcp 1040 ------- 1 0.0 1.0 97 189
+ 0.75616 1 0 ack 40 ------- 1 1.0 0.0 97 203
- 0.75616 1 0 ack 40 ------- 1 1.0 0.0 97 203
- 0.75696 0 1 tcp 1040 ------- 1 0.0 1.0 103 200
r 0.75968 1 0 ack 40 ------- 1 1.0 0.0 93 195
+ 0.75968 0 1 tcp 1040 ------- 1 0.0 1.0 105 204
r 0.76032 0 1 tcp 1040 ------- 1 0.0 1.0 98 191
+ 0.76032 1 0 ack 40 ------- 1 1.0 0.0 98 205
- 0.76032 1 0 ack 40 ------- 1 1.0 0.0 98 205
- 0.76112 0 1 tcp 1040 ------- 1 0.0 1.0 104 202
r 0.76384 1 0 ack 40 ------- 1 1.0 0.0 94 197
+ 0.76384 0 1 tcp 1040 ------- 1 0.0 1.0 106 206
r 0.76448 0 1 tcp 1040 ------- 1 0.0 1.0 99 192
+ 0.76448 1 0 ack 40 ------- 1 1.0 0.0 99 207
- 0.76448 1 0 ack 40 ------- 1 1.0 0.0 99 207
- 0.76528 0 1 tcp 1040 ------- 1 0.0 1.0 105 204
r 0.768 1 0 ack 40 ------- 1 1.0 0.0 95 199
+ 0.768 0 1 tcp 1040 ------- 1 0.0 1.0 107 208
r 0.76864 0 1 tcp 1040 ------- 1 0.0 1.0 100 194
+ 0.76864 1 0 ack 40 ------- 1 1.0 0.0 100 209
- 0.76864 1 0 ack 40 ------- 1 1.0 0.0 100 209
- 0.76944 0 1 tcp 1040 ------- 1 0.0 1.0 106 206
r 0.77216 1 0 ack 40 ------- 1 1.0 0.0 96 201
+ 0.77216 0 1 tcp 1040 ------- 1 0.0 1.0 108 210
r 0.7728 0 1 tcp 1040 ------- 1 0.0 1.0 101 196
+ 0.7728 1 0 ack 40 ------- 1 1.0 0.0 101 211
- 0.7728 1 0 ack 40 ------- 1 1.0 0.0 101 211
- 0.7736 0 1 tcp 1040 ------- 1 0.0 1.0 107 208
r 0.77632 1 0 ack 40 ------- 1 1.0 0.0 97 203
+ 0.77632 0 1 tcp 1040 ------- 1 0.0 1.0 109 212
r 0.77696 0 1 tcp 1040 ------- 1 0.0 1.0 102 198
+ 0.77696 1 0 ack 40 ------- 1 1.0 0.0 102 213
- 0.77696 1 0 ack 40 ------- 1 1.0 0.0 102 213
- 0.77776 0 1 tcp 1040 ------- 1 0.0 1.0 108 210
r 0.78048 1 0 ack 40 ------- 1 1.0 0.0 98 205
+ 0.78048 0 1 tcp 1040 ------- 1 0.0 1.0 110 214
r 0.78112 0 1 tcp 1040 ------- 1 0.0 1.0 103 200
+ 0.78112 1 0 ack 40 ------- 1 1.0 0.0 103 215
- 0.78112 1 0 ack 40 ------- 1 1.0 0.0 103 215
- 0.78192 0 1 tcp 1040 ------- 1 0.0 1.0 109 212
r 0.78464 1 0 ack 40 ------- 1 1.0 0.0 99 207
+ 0.78464 0 1 tcp 1040 ------- 1 0.0 1.0 111 216
r 0.78528 0 1 tcp 1040 ------- 1 0.0 1.0 104 202
+ 0.78528 1 0 ack 40 ------- 1 1.0 0.0 104 217
- 0.78528 1 0 ack 40 ------- 1 1.0 0.0 104 217
- 0.78608 0 1 tcp 1040 ------- 1 0.0 1.0 110 214
r 0.7888 1 0 ack 40 ------- 1 1.0 0.0 100 209
+ 0.7888 0 1 tcp 1040 ------- 1 0.0 1.0 112 218
+ 0.7888 0 1 tcp 1040 ------- 1 0.0 1.0 113 219
r 0.78944 0 1 tcp 1040 ------- 1 0.0 1.0 105 204
+ 0.78944 1 0 ack 40 ------- 1 1.0 0.0 105 220
- 0.78944 1 0 ack 40 ------- 1 1.0 0.0 105 220
- 0.79024 0 1 tcp 1040 ------- 1 0.0 1.0 111 216
r 0.79296 1 0 ack 40 ------- 1 1.0 0.0 101 211