+ 0.1 0 1 tcp 40 ------- 1 0.0 1.0 0 0
- 0.1 0 1 tcp 40 ------- 1 0.0 1.0 0 0
+ 0.1 2 3 tcp 40 ------- 2 2.0 3.0 0 1
- 0.1 2 3 tcp 40 ------- 2 2.0 3.0 0 1
r 0.11032 2 3 tcp 40 ------- 2 2.0 3.0 0 1
+ 0.11032 3 2 ack 40 ------- 2 3.0 2.0 0 2
- 0.11032 3 2 ack 40 ------- 2 3.0 2.0 0 2
r 0.12016 0 1 tcp 40 ------- 1 0.0 1.0 0 0
+ 0.12016 1 0 ack 40 ------- 1 1.0 0.0 0 3
- 0.12016 1 0 ack 40 ------- 1 1.0 0.0 0 3
r 0.12064 3 2 ack 40 ------- 2 3.0 2.0 0 2
+ 0.12064 2 3 tcp 1040 ------- 2 2.0 3.0 1 4
- 0.12064 2 3 tcp 1040 ------- 2 2.0 3.0 1 4
+ 0.12064 2 3 tcp 1040 ------- 2 2.0 3.0 2 5
- 0.12896 2 3 tcp 1040 ------- 2 2.0 3.0 2 5
r 0.13896 2 3 tcp 1040 ------- 2 2.0 3.0 1 4
+ 0.13896 3 2 ack 40 ------- 2 3.0 2.0 1 6
- 0.13896 3 2 ack 40 ------- 2 3.0 2.0 1 6
r 0.14032 1 0 ack 40 ------- 1 1.0 0.0 0 3
+ 0.14032 0 1 tcp 1040 ------- 1 0.0 1.0 1 7
- 0.14032 0 1 tcp 1040 ------- 1 0.0 1.0 1 7
+ 0.14032 0 1 tcp 1040 ------- 1 0.0 1.0 2 8
- 0.14448 0 1 tcp 1040 ------- 1 0.0 1.0 2 8
r 0.14728 2 3 tcp 1040 ------- 2 2.0 3.0 2 5
+ 0.14728 3 2 ack 40 ------- 2 3.0 2.0 2 9
- 0.14728 3 2 ack 40 ------- 2 3.0 2.0 2 9
r 0.14928 3 2 ack 40 ------- 2 3.0 2.0 1 6
+ 0.14928 2 3 tcp 1040 ------- 2 2.0 3.0 3 10
- 0.14928 2 3 tcp 1040 ------- 2 2.0 3.0 3 10
+ 0.14928 2 3 tcp 1040 ------- 2 2.0 3.0 4 11
r 0.1576 3 2 ack 40 ------- 2 3.0 2.0 2 9
+ 0.1576 2 3 tcp 1040 ------- 2 2.0 3.0 5 12
+ 0.1576 2 3 tcp 1040 ------- 2 2.0 3.0 6 13
- 0.1576 2 3 tcp 1040 ------- 2 2.0 3.0 4 11
r 0.16448 0 1 tcp 1040 ------- 1 0.0 1.0 1 7
+ 0.16448 1 0 ack 40 ------- 1 1.0 0.0 1 14
- 0.16448 1 0 ack 40 ------- 1 1.0 0.0 1 14
- 0.16592 2 3 tcp 1040 ------- 2 2.0 3.0 5 12
r 0.1676 2 3 tcp 1040 ------- 2 2.0 3.0 3 10
+ 0.1676 3 2 ack 40 ------- 2 3.0 2.0 3 15
- 0.1676 3 2 ack 40 ------- 2 3.0 2.0 3 15
r 0.16864 0 1 tcp 1040 ------- 1 0.0 1.0 2 8
+ 0.16864 1 0 ack 40 ------- 1 1.0 0.0 2 16
- 0.16864 1 0 ack 40 ------- 1 1.0 0.0 2 16
- 0.17424 2 3 tcp 1040 ------- 2 2.0 3.0 6 13
r 0.17592 2 3 tcp 1040 ------- 2 2.0 3.0 4 11
+ 0.17592 3 2 ack 40 ------- 2 3.0 2.0 4 17
- 0.17592 3 2 ack 40 ------- 2 3.0 2.0 4 17
r 0.17792 3 2 ack 40 ------- 2 3.0 2.0 3 15
+ 0.17792 2 3 tcp 1040 ------- 2 2.0 3.0 7 18
+ 0.17792 2 3 tcp 1040 ------- 2 2.0 3.0 8 19
- 0.18256 2 3 tcp 1040 ------- 2 2.0 3.0 7 18
r 0.18424 2 3 tcp 1040 ------- 2 2.0 3.0 5 12
+ 0.18424 3 2 ack 40 ------- 2 3.0 2.0 5 20
- 0.18424 3 2 ack 40 ------- 2 3.0 2.0 5 20
r 0.18464 1 0 ack 40 ------- 1 1.0 0.0 1 14
+ 0.18464 0 1 tcp 1040 ------- 1 0.0 1.0 3 21
- 0.18464 0 1 tcp 1040 ------- 1 0.0 1.0 3 21
+ 0.18464 0 1 tcp 1040 ------- 1 0.0 1.0 4 22
r 0.18624 3 2 ack 40 ------- 2 3.0 2.0 4 17
+ 0.18624 2 3 tcp 1040 ------- 2 2.0 3.0 9 23
+ 0.18624 2 3 tcp 1040 ------- 2 2.0 3.0 10 24
r 0.1888 1 0 ack 40 ------- 1 1.0 0.0 2 16
+ 0.1888 0 1 tcp 1040 ------- 1 0.0 1.0 5 25
+ 0.1888 0 1 tcp 1040 ------- 1 0.0 1.0 6 26
- 0.1888 0 1 tcp 1040 ------- 1 0.0 1.0 4 22
- 0.19088 2 3 tcp 1040 ------- 2 2.0 3.0 8 19
r 0.19256 2 3 tcp 1040 ------- 2 2.0 3.0 6 13
+ 0.19256 3 2 ack 40 ------- 2 3.0 2.0 6 27
- 0.19256 3 2 ack 40 ------- 2 3.0 2.0 6 27
- 0.19296 0 1 tcp 1040 ------- 1 0.0 1.0 5 25
r 0.19456 3 2 ack 40 ------- 2 3.0 2.0 5 20
+ 0.19456 2 3 tcp 1040 ------- 2 2.0 3.0 11 28
+ 0.19456 2 3 tcp 1040 ------- 2 2.0 3.0 12 29
- 0.19712 0 1 tcp 1040 ------- 1 0.0 1.0 6 26
- 0.1992 2 3 tcp 1040 ------- 2 2.0 3.0 9 23
r 0.20088 2 3 tcp 1040 ------- 2 2.0 3.0 7 18
+ 0.20088 3 2 ack 40 ------- 2 3.0 2.0 7 30
- 0.20088 3 2 ack 40 ------- 2 3.0 2.0 7 30
r 0.20288 3 2 ack 40 ------- 2 3.0 2.0 6 27
+ 0.20288 2 3 tcp 1040 ------- 2 2.0 3.0 13 31
+ 0.20288 2 3 tcp 1040 ------- 2 2.0 3.0 14 32
- 0.20752 2 3 tcp 1040 ------- 2 2.0 3.0 10 24
r 0.2088 0 1 tcp 1040 ------- 1 0.0 1.0 3 21
+ 0.2088 1 0 ack 40 ------- 1 1.0 0.0 3 33
- 0.2088 1 0 ack 40 ------- 1 1.0 0.0 3 33
r 0.2092 2 3 tcp 1040 ------- 2 2.0 3.0 8 19
+ 0.2092 3 2 ack 40 ------- 2 3.0 2.0 8 34
- 0.2092 3 2 ack 40 ------- 2 3.0 2.0 8 34
r 0.2112 3 2 ack 40 ------- 2 3.0 2.0 7 30
+ 0.2112 2 3 tcp 1040 ------- 2 2.0 3.0 15 35
+ 0.2112 2 3 tcp 1040 ------- 2 2.0 3.0 16 36
r 0.21296 0 1 tcp 1040 ------- 1 0.0 1.0 4 22
+ 0.21296 1 0 ack 40 ------- 1 1.0 0.0 4 37
- 0.21296 1 0 ack 40 ------- 1 1.0 0.0 4 37
- 0.21584 2 3 tcp 1040 ------- 2 2.0 3.0 11 28
r 0.21712 0 1 tcp 1040 ------- 1 0.0 1.0 5 25
+ 0.21712 1 0 ack 40 ------- 1 1.0 0.0 5 38
- 0.21712 1 0 ack 40 ------- 1 1.0 0.0 5 38
r 0.21752 2 3 tcp 1040 ------- 2 2.0 3.0 9 23
+ 0.21752 3 2 ack 40 ------- 2 3.0 2.0 9 39
- 0.21752 3 2 ack 40 ------- 2 3.0 2.0 9 39
r 0.21952 3 2 ack 40 ------- 2 3.0 2.0 8 34
+ 0.21952 2 3 tcp 1040 ------- 2 2.0 3.0 17 40
+ 0.21952 2 3 tcp 1040 ------- 2 2.0 3.0 18 41
r 0.22128 0 1 tcp 1040 ------- 1 0.0 1.0 6 26
+ 0.22128 1 0 ack 40 ------- 1 1.0 0.0 6 42
- 0.22128 1 0 ack 40 ------- 1 1.0 0.0 6 42
- 0.22416 2 3 tcp 1040 ------- 2 2.0 3.0 12 29
r 0.22584 2 3 tcp 1040 ------- 2 2.0 3.0 10 24
+ 0.22584 3 2 ack 40 ------- 2 3.0 2.0 10 43
- 0.22584 3 2 ack 40 ------- 2 3.0 2.0 10 43
r 0.22784 3 2 ack 40 ------- 2 3.0 2.0 9 39
+ 0.22784 2 3 tcp 1040 ------- 2 2.0 3.0 19 44
+ 0.22784 2 3 tcp 1040 ------- 2 2.0 3.0 20 45
r 0.22896 1 0 ack 40 ------- 1 1.0 0.0 3 33
+ 0.22896 0 1 tcp 1040 ------- 1 0.0 1.0 7 46
- 0.22896 0 1 tcp 1040 ------- 1 0.0 1.0 7 46
+ 0.22896 0 1 tcp 1040 ------- 1 0.0 1.0 8 47
- 0.23248 2 3 tcp 1040 ------- 2 2.0 3.0 13 31
r 0.23312 1 0 ack 40 ------- 1 1.0 0.0 4 37
+ 0.23312 0 1 tcp 1040 ------- 1 0.0 1.0 9 48
+ 0.23312 0 1 tcp 1040 ------- 1 0.0 1.0 10 49
- 0.23312 0 1 tcp 1040 ------- 1 0.0 1.0 8 47
r 0.23416 2 3 tcp 1040 ------- 2 2.0 3.0 11 28
+ 0.23416 3 2 ack 40 ------- 2 3.0 2.0 11 50
- 0.23416 3 2 ack 40 ------- 2 3.0 2.0 11 50
r 0.23616 3 2 ack 40 ------- 2 3.0 2.0 10 43
+ 0.23616 2 3 tcp 1040 ------- 2 2.0 3.0 21 51
+ 0.23616 2 3 tcp 1040 ------- 2 2.0 3.0 22 52
r 0.23728 1 0 ack 40 ------- 1 1.0 0.0 5 38
+ 0.23728 0 1 tcp 1040 ------- 1 0.0 1.0 11 53
+ 0.23728 0 1 tcp 1040 ------- 1 0.0 1.0 12 54
- 0.23728 0 1 tcp 1040 ------- 1 0.0 1.0 9 48
- 0.2408 2 3 tcp 1040 ------- 2 2.0 3.0 14 32
r 0.24144 1 0 ack 40 ------- 1 1.0 0.0 6 42
+ 0.24144 0 1 tcp 1040 ------- 1 0.0 1.0 13 55
+ 0.24144 0 1 tcp 1040 ------- 1 0.0 1.0 14 56
- 0.24144 0 1 tcp 1040 ------- 1 0.0 1.0 10 49
r 0.24248 2 3 tcp 1040 ------- 2 2.0 3.0 12 29
+ 0.24248 3 2 ack 40 ------- 2 3.0 2.0 12 57
- 0.24248 3 2 ack 40 ------- 2 3.0 2.0 12 57
r 0.24448 3 2 ack 40 ------- 2 3.0 2.0 11 50
+ 0.24448 2 3 tcp 1040 ------- 2 2.0 3.0 23 58
+ 0.24448 2 3 tcp 1040 ------- 2 2.0 3.0 24 59
d 0.24448 2 3 tcp 1040 ------- 2 2.0 3.0 24 59
- 0.2456 0 1 tcp 1040 ------- 1 0.0 1.0 11 53
- 0.24912 2 3 tcp 1040 ------- 2 2.0 3.0 15 35
- 0.24976 0 1 tcp 1040 ------- 1 0.0 1.0 12 54
r 0.2508 2 3 tcp 1040 ------- 2 2.0 3.0 13 31
+ 0.2508 3 2 ack 40 ------- 2 3.0 2.0 13 60
- 0.2508 3 2 ack 40 ------- 2 3.0 2.0 13 60
r 0.2528 3 2 ack 40 ------- 2 3.0 2.0 12 57
+ 0.2528 2 3 tcp 1040 ------- 2 2.0 3.0 25 61
+ 0.2528 2 3 tcp 1040 ------- 2 2.0 3.0 26 62
d 0.2528 2 3 tcp 1040 ------- 2 2.0 3.0 26 62
r 0.25312 0 1 tcp 1040 ------- 1 0.0 1.0 7 46
+ 0.25312 1 0 ack 40 ------- 1 1.0 0.0 7 63
- 0.25312 1 0 ack 40 ------- 1 1.0 0.0 7 63
- 0.25392 0 1 tcp 1040 ------- 1 0.0 1.0 13 55
r 0.25728 0 1 tcp 1040 ------- 1 0.0 1.0 8 47
+ 0.25728 1 0 ack 40 ------- 1 1.0 0.0 8 64
- 0.25728 1 0 ack 40 ------- 1 1.0 0.0 8 64
- 0.25744 2 3 tcp 1040 ------- 2 2.0 3.0 16 36
- 0.25808 0 1 tcp 1040 ------- 1 0.0 1.0 14 56
r 0.25912 2 3 tcp 1040 ------- 2 2.0 3.0 14 32
+ 0.25912 3 2 ack 40 ------- 2 3.0 2.0 14 65
- 0.25912 3 2 ack 40 ------- 2 3.0 2.0 14 65
r 0.26112 3 2 ack 40 ------- 2 3.0 2.0 13 60
+ 0.26112 2 3 tcp 1040 ------- 2 2.0 3.0 27 66
+ 0.26112 2 3 tcp 1040 ------- 2 2.0 3.0 28 67
d 0.26112 2 3 tcp 1040 ------- 2 2.0 3.0 28 67
r 0.26144 0 1 tcp 1040 ------- 1 0.0 1.0 9 48
+ 0.26144 1 0 ack 40 ------- 1 1.0 0.0 9 68
- 0.26144 1 0 ack 40 ------- 1 1.0 0.0 9 68
r 0.2656 0 1 tcp 1040 ------- 1 0.0 1.0 10 49
+ 0.2656 1 0 ack 40 ------- 1 1.0 0.0 10 69
- 0.2656 1 0 ack 40 ------- 1 1.0 0.0 10 69
- 0.26576 2 3 tcp 1040 ------- 2 2.0 3.0 17 40
r 0.26744 2 3 tcp 1040 ------- 2 2.0 3.0 15 35
+ 0.26744 3 2 ack 40 ------- 2 3.0 2.0 15 70
- 0.26744 3 2 ack 40 ------- 2 3.0 2.0 15 70
r 0.26944 3 2 ack 40 ------- 2 3.0 2.0 14 65
+ 0.26944 2 3 tcp 1040 ------- 2 2.0 3.0 29 71
+ 0.26944 2 3 tcp 1040 ------- 2 2.0 3.0 30 72
d 0.26944 2 3 tcp 1040 ------- 2 2.0 3.0 30 72
r 0.26976 0 1 tcp 1040 ------- 1 0.0 1.0 11 53
+ 0.26976 1 0 ack 40 ------- 1 1.0 0.0 11 73
- 0.26976 1 0 ack 40 ------- 1 1.0 0.0 11 73
r 0.27328 1 0 ack 40 ------- 1 1.0 0.0 7 63
+ 0.27328 0 1 tcp 1040 ------- 1 0.0 1.0 15 74
- 0.27328 0 1 tcp 1040 ------- 1 0.0 1.0 15 74
+ 0.27328 0 1 tcp 1040 ------- 1 0.0 1.0 16 75
r 0.27392 0 1 tcp 1040 ------- 1 0.0 1.0 12 54
+ 0.27392 1 0 ack 40 ------- 1 1.0 0.0 12 76
- 0.27392 1 0 ack 40 ------- 1 1.0 0.0 12 76
- 0.27408 2 3 tcp 1040 ------- 2 2.0 3.0 18 41
r 0.27576 2 3 tcp 1040 ------- 2 2.0 3.0 16 36
+ 0.27576 3 2 ack 40 ------- 2 3.0 2.0 16 77
- 0.27576 3 2 ack 40 ------- 2 3.0 2.0 16 77
r 0.27744 1 0 ack 40 ------- 1 1.0 0.0 8 64
+ 0.27744 0 1 tcp 1040 ------- 1 0.0 1.0 17 78
+ 0.27744 0 1 tcp 1040 ------- 1 0.0 1.0 18 79
- 0.27744 0 1 tcp 1040 ------- 1 0.0 1.0 16 75
r 0.27776 3 2 ack 40 ------- 2 3.0 2.0 15 70
+ 0.27776 2 3 tcp 1040 ------- 2 2.0 3.0 31 80
+ 0.27776 2 3 tcp 1040 ------- 2 2.0 3.0 32 81
d 0.27776 2 3 tcp 1040 ------- 2 2.0 3.0 32 81
r 0.27808 0 1 tcp 1040 ------- 1 0.0 1.0 13 55
+ 0.27808 1 0 ack 40 ------- 1 1.0 0.0 13 82
- 0.27808 1 0 ack 40 ------- 1 1.0 0.0 13 82
r 0.2816 1 0 ack 40 ------- 1 1.0 0.0 9 68
+ 0.2816 0 1 tcp 1040 ------- 1 0.0 1.0 19 83
+ 0.2816 0 1 tcp 1040 ------- 1 0.0 1.0 20 84
- 0.2816 0 1 tcp 1040 ------- 1 0.0 1.0 17 78
r 0.28224 0 1 tcp 1040 ------- 1 0.0 1.0 14 56
+ 0.28224 1 0 ack 40 ------- 1 1.0 0.0 14 85
- 0.28224 1 0 ack 40 ------- 1 1.0 0.0 14 85
- 0.2824 2 3 tcp 1040 ------- 2 2.0 3.0 19 44
r 0.28408 2 3 tcp 1040 ------- 2 2.0 3.0 17 40
+ 0.28408 3 2 ack 40 ------- 2 3.0 2.0 17 86
- 0.28408 3 2 ack 40 ------- 2 3.0 2.0 17 86
r 0.28576 1 0 ack 40 ------- 1 1.0 0.0 10 69
+ 0.28576 0 1 tcp 1040 ------- 1 0.0 1.0 21 87
+ 0.28576 0 1 tcp 1040 ------- 1 0.0 1.0 22 88
- 0.28576 0 1 tcp 1040 ------- 1 0.0 1.0 18 79
r 0.28608 3 2 ack 40 ------- 2 3.0 2.0 16 77
+ 0.28608 2 3 tcp 1040 ------- 2 2.0 3.0 33 89
+ 0.28608 2 3 tcp 1040 ------- 2 2.0 3.0 34 90
d 0.28608 2 3 tcp 1040 ------- 2 2.0 3.0 34 90
r 0.28992 1 0 ack 40 ------- 1 1.0 0.0 11 73
+ 0.28992 0 1 tcp 1040 ------- 1 0.0 1.0 23 91
+ 0.28992 0 1 tcp 1040 ------- 1 0.0 1.0 24 92
- 0.28992 0 1 tcp 1040 ------- 1 0.0 1.0 19 83
- 0.29072 2 3 tcp 1040 ------- 2 2.0 3.0 20 45
r 0.2924 2 3 tcp 1040 ------- 2 2.0 3.0 18 41
+ 0.2924 3 2 ack 40 ------- 2 3.0 2.0 18 93
- 0.2924 3 2 ack 40 ------- 2 3.0 2.0 18 93
r 0.29408 1 0 ack 40 ------- 1 1.0 0.0 12 76
+ 0.29408 0 1 tcp 1040 ------- 1 0.0 1.0 25 94
+ 0.29408 0 1 tcp 1040 ------- 1 0.0 1.0 26 95
- 0.29408 0 1 tcp 1040 ------- 1 0.0 1.0 20 84
r 0.2944 3 2 ack 40 ------- 2 3.0 2.0 17 86
+ 0.2944 2 3 tcp 1040 ------- 2 2.0 3.0 35 96
+ 0.2944 2 3 tcp 1040 ------- 2 2.0 3.0 36 97
d 0.2944 2 3 tcp 1040 ------- 2 2.0 3.0 36 97
r 0.29744 0 1 tcp 1040 ------- 1 0.0 1.0 15 74
+ 0.29744 1 0 ack 40 ------- 1 1.0 0.0 15 98
- 0.29744 1 0 ack 40 ------- 1 1.0 0.0 15 98
r 0.29824 1 0 ack 40 ------- 1 1.0 0.0 13 82
+ 0.29824 0 1 tcp 1040 ------- 1 0.0 1.0 27 99
+ 0.29824 0 1 tcp 1040 ------- 1 0.0 1.0 28 100
- 0.29824 0 1 tcp 1040 ------- 1 0.0 1.0 21 87
- 0.29904 2 3 tcp 1040 ------- 2 2.0 3.0 21 51
r 0.30072 2 3 tcp 1040 ------- 2 2.0 3.0 19 44
+ 0.30072 3 2 ack 40 ------- 2 3.0 2.0 19 101
- 0.30072 3 2 ack 40 ------- 2 3.0 2.0 19 101
r 0.3016 0 1 tcp 1040 ------- 1 0.0 1.0 16 75
+ 0.3016 1 0 ack 40 ------- 1 1.0 0.0 16 102
- 0.3016 1 0 ack 40 ------- 1 1.0 0.0 16 102
r 0.3024 1 0 ack 40 ------- 1 1.0 0.0 14 85
+ 0.3024 0 1 tcp 1040 ------- 1 0.0 1.0 29 103
+ 0.3024 0 1 tcp 1040 ------- 1 0.0 1.0 30 104
- 0.3024 0 1 tcp 1040 ------- 1 0.0 1.0 22 88
r 0.30272 3 2 ack 40 ------- 2 3.0 2.0 18 93
+ 0.30272 2 3 tcp 1040 ------- 2 2.0 3.0 37 105
+ 0.30272 2 3 tcp 1040 ------- 2 2.0 3.0 38 106
d 0.30272 2 3 tcp 1040 ------- 2 2.0 3.0 38 106
r 0.30576 0 1 tcp 1040 ------- 1 0.0 1.0 17 78
+ 0.30576 1 0 ack 40 ------- 1 1.0 0.0 17 107
- 0.30576 1 0 ack 40 ------- 1 1.0 0.0 17 107
- 0.30656 0 1 tcp 1040 ------- 1 0.0 1.0 23 91
- 0.30736 2 3 tcp 1040 ------- 2 2.0 3.0 22 52
r 0.30904 2 3 tcp 1040 ------- 2 2.0 3.0 20 45
+ 0.30904 3 2 ack 40 ------- 2 3.0 2.0 20 108
- 0.30904 3 2 ack 40 ------- 2 3.0 2.0 20 108
r 0.30992 0 1 tcp 1040 ------- 1 0.0 1.0 18 79
+ 0.30992 1 0 ack 40 ------- 1 1.0 0.0 18 109
- 0.30992 1 0 ack 40 ------- 1 1.0 0.0 18 109
- 0.31072 0 1 tcp 1040 ------- 1 0.0 1.0 24 92
r 0.31104 3 2 ack 40 ------- 2 3.0 2.0 19 101
+ 0.31104 2 3 tcp 1040 ------- 2 2.0 3.0 39 110
r 0.31408 0 1 tcp 1040 ------- 1 0.0 1.0 19 83
+ 0.31408 1 0 ack 40 ------- 1 1.0 0.0 19 111
- 0.31408 1 0 ack 40 ------- 1 1.0 0.0 19 111
- 0.31488 0 1 tcp 1040 ------- 1 0.0 1.0 25 94
- 0.31568 2 3 tcp 1040 ------- 2 2.0 3.0 23 58
r 0.31736 2 3 tcp 1040 ------- 2 2.0 3.0 21 51
+ 0.31736 3 2 ack 40 ------- 2 3.0 2.0 21 112
- 0.31736 3 2 ack 40 ------- 2 3.0 2.0 21 112
r 0.3176 1 0 ack 40 ------- 1 1.0 0.0 15 98
+ 0.3176 0 1 tcp 1040 ------- 1 0.0 1.0 31 113
+ 0.3176 0 1 tcp 1040 ------- 1 0.0 1.0 32 114
r 0.31824 0 1 tcp 1040 ------- 1 0.0 1.0 20 84
+ 0.31824 1 0 ack 40 ------- 1 1.0 0.0 20 115
- 0.31824 1 0 ack 40 ------- 1 1.0 0.0 20 115
- 0.31904 0 1 tcp 1040 ------- 1 0.0 1.0 26 95
r 0.31936 3 2 ack 40 ------- 2 3.0 2.0 20 108
+ 0.31936 2 3 tcp 1040 ------- 2 2.0 3.0 40 116
r 0.32176 1 0 ack 40 ------- 1 1.0 0.0 16 102
+ 0.32176 0 1 tcp 1040 ------- 1 0.0 1.0 33 117
+ 0.32176 0 1 tcp 1040 ------- 1 0.0 1.0 34 118
r 0.3224 0 1 tcp 1040 ------- 1 0.0 1.0 21 87
+ 0.3224 1 0 ack 40 ------- 1 1.0 0.0 21 119
- 0.3224 1 0 ack 40 ------- 1 1.0 0.0 21 119
- 0.3232 0 1 tcp 1040 ------- 1 0.0 1.0 27 99
- 0.324 2 3 tcp 1040 ------- 2 2.0 3.0 25 61
r 0.32568 2 3 tcp 1040 ------- 2 2.0 3.0 22 52
+ 0.32568 3 2 ack 40 ------- 2 3.0 2.0 22 120
- 0.32568 3 2 ack 40 ------- 2 3.0 2.0 22 120
r 0.32592 1 0 ack 40 ------- 1 1.0 0.0 17 107
+ 0.32592 0 1 tcp 1040 ------- 1 0.0 1.0 35 121
+ 0.32592 0 1 tcp 1040 ------- 1 0.0 1.0 36 122
r 0.32656 0 1 tcp 1040 ------- 1 0.0 1.0 22 88
+ 0.32656 1 0 ack 40 ------- 1 1.0 0.0 22 123
- 0.32656 1 0 ack 40 ------- 1 1.0 0.0 22 123
- 0.32736 0 1 tcp 1040 ------- 1 0.0 1.0 28 100
r 0.32768 3 2 ack 40 ------- 2 3.0 2.0 21 112
+ 0.32768 2 3 tcp 1040 ------- 2 2.0 3.0 41 124
r 0.33008 1 0 ack 40 ------- 1 1.0 0.0 18 109
+ 0.33008 0 1 tcp 1040 ------- 1 0.0 1.0 37 125
+ 0.33008 0 1 tcp 1040 ------- 1 0.0 1.0 38 126
d 0.33008 0 1 tcp 1040 ------- 1 0.0 1.0 38 126
r 0.33072 0 1 tcp 1040 ------- 1 0.0 1.0 23 91
+ 0.33072 1 0 ack 40 ------- 1 1.0 0.0 23 127
- 0.33072 1 0 ack 40 ------- 1 1.0 0.0 23 127
- 0.33152 0 1 tcp 1040 ------- 1 0.0 1.0 29 103
- 0.33232 2 3 tcp 1040 ------- 2 2.0 3.0 27 66
r 0.334 2 3 tcp 1040 ------- 2 2.0 3.0 23 58
+ 0.334 3 2 ack 40 ------- 2 3.0 2.0 23 128
- 0.334 3 2 ack 40 ------- 2 3.0 2.0 23 128
r 0.33424 1 0 ack 40 ------- 1 1.0 0.0 19 111
+ 0.33424 0 1 tcp 1040 ------- 1 0.0 1.0 39 129
r 0.33488 0 1 tcp 1040 ------- 1 0.0 1.0 24 92
+ 0.33488 1 0 ack 40 ------- 1 1.0 0.0 24 130
- 0.33488 1 0 ack 40 ------- 1 1.0 0.0 24 130
- 0.33568 0 1 tcp 1040 ------- 1 0.0 1.0 30 104
r 0.336 3 2 ack 40 ------- 2 3.0 2.0 22 120
+ 0.336 2 3 tcp 1040 ------- 2 2.0 3.0 42 131
r 0.3384 1 0 ack 40 ------- 1 1.0 0.0 20 115
+ 0.3384 0 1 tcp 1040 ------- 1 0.0 1.0 40 132
r 0.33904 0 1 tcp 1040 ------- 1 0.0 1.0 25 94
+ 0.33904 1 0 ack 40 ------- 1 1.0 0.0 25 133
- 0.33904 1 0 ack 40 ------- 1 1.0 0.0 25 133
- 0.33984 0 1 tcp 1040 ------- 1 0.0 1.0 31 113
- 0.34064 2 3 tcp 1040 ------- 2 2.0 3.0 29 71
r 0.34232 2 3 tcp 1040 ------- 2 2.0 3.0 25 61
+ 0.34232 3 2 ack 40 ------- 2 3.0 2.0 23 134
- 0.34232 3 2 ack 40 ------- 2 3.0 2.0 23 134
r 0.34256 1 0 ack 40 ------- 1 1.0 0.0 21 119
+ 0.34256 0 1 tcp 1040 ------- 1 0.0 1.0 41 135
r 0.3432 0 1 tcp 1040 ------- 1 0.0 1.0 26 95
+ 0.3432 1 0 ack 40 ------- 1 1.0 0.0 26 136
- 0.3432 1 0 ack 40 ------- 1 1.0 0.0 26 136
- 0.344 0 1 tcp 1040 ------- 1 0.0 1.0 32 114
r 0.34432 3 2 ack 40 ------- 2 3.0 2.0 23 128
+ 0.34432 2 3 tcp 1040 ------- 2 2.0 3.0 43 137
r 0.34672 1 0 ack 40 ------- 1 1.0 0.0 22 123
+ 0.34672 0 1 tcp 1040 ------- 1 0.0 1.0 42 138
r 0.34736 0 1 tcp 1040 ------- 1 0.0 1.0 27 99
+ 0.34736 1 0 ack 40 ------- 1 1.0 0.0 27 139
- 0.34736 1 0 ack 40 ------- 1 1.0 0.0 27 139
- 0.34816 0 1 tcp 1040 ------- 1 0.0 1.0 33 117
- 0.34896 2 3 tcp 1040 ------- 2 2.0 3.0 31 80
r 0.35064 2 3 tcp 1040 ------- 2 2.0 3.0 27 66
+ 0.35064 3 2 ack 40 ------- 2 3.0 2.0 23 140
- 0.35064 3 2 ack 40 ------- 2 3.0 2.0 23 140
r 0.35088 1 0 ack 40 ------- 1 1.0 0.0 23 127
+ 0.35088 0 1 tcp 1040 ------- 1 0.0 1.0 43 141
r 0.35152 0 1 tcp 1040 ------- 1 0.0 1.0 28 100
+ 0.35152 1 0 ack 40 ------- 1 1.0 0.0 28 142
- 0.35152 1 0 ack 40 ------- 1 1.0 0.0 28 142
- 0.35232 0 1 tcp 1040 ------- 1 0.0 1.0 34 118
r 0.35264 3 2 ack 40 ------- 2 3.0 2.0 23 134
r 0.35504 1 0 ack 40 ------- 1 1.0 0.0 24 130
+ 0.35504 0 1 tcp 1040 ------- 1 0.0 1.0 44 143
r 0.35568 0 1 tcp 1040 ------- 1 0.0 1.0 29 103
+ 0.35568 1 0 ack 40 ------- 1 1.0 0.0 29 144
- 0.35568 1 0 ack 40 ------- 1 1.0 0.0 29 144
- 0.35648 0 1 tcp 1040 ------- 1 0.0 1.0 35 121
- 0.35728 2 3 tcp 1040 ------- 2 2.0 3.0 33 89
r 0.35896 2 3 tcp 1040 ------- 2 2.0 3.0 29 71
+ 0.35896 3 2 ack 40 ------- 2 3.0 2.0 23 145
- 0.35896 3 2 ack 40 ------- 2 3.0 2.0 23 145
r 0.3592 1 0 ack 40 ------- 1 1.0 0.0 25 133
+ 0.3592 0 1 tcp 1040 ------- 1 0.0 1.0 45 146
r 0.35984 0 1 tcp 1040 ------- 1 0.0 1.0 30 104
+ 0.35984 1 0 ack 40 ------- 1 1.0 0.0 30 147
- 0.35984 1 0 ack 40 ------- 1 1.0 0.0 30 147
- 0.36064 0 1 tcp 1040 ------- 1 0.0 1.0 36 122
r 0.36096 3 2 ack 40 ------- 2 3.0 2.0 23 140
r 0.36336 1 0 ack 40 ------- 1 1.0 0.0 26 136
+ 0.36336 0 1 tcp 1040 ------- 1 0.0 1.0 46 148
r 0.364 0 1 tcp 1040 ------- 1 0.0 1.0 31 113
+ 0.364 1 0 ack 40 ------- 1 1.0 0.0 31 149
- 0.364 1 0 ack 40 ------- 1 1.0 0.0 31 149
- 0.3648 0 1 tcp 1040 ------- 1 0.0 1.0 37 125
- 0.3656 2 3 tcp 1040 ------- 2 2.0 3.0 35 96
r 0.36728 2 3 tcp 1040 ------- 2 2.0 3.0 31 80
+ 0.36728 3 2 ack 40 ------- 2 3.0 2.0 23 150
- 0.36728 3 2 ack 40 ------- 2 3.0 2.0 23 150
r 0.36752 1 0 ack 40 ------- 1 1.0 0.0 27 139
+ 0.36752 0 1 tcp 1040 ------- 1 0.0 1.0 47 151
r 0.36816 0 1 tcp 1040 ------- 1 0.0 1.0 32 114
+ 0.36816 1 0 ack 40 ------- 1 1.0 0.0 32 152
- 0.36816 1 0 ack 40 ------- 1 1.0 0.0 32 152
- 0.36896 0 1 tcp 1040 ------- 1 0.0 1.0 39 129
r 0.36928 3 2 ack 40 ------- 2 3.0 2.0 23 145
+ 0.36928 2 3 tcp 1040 ---A--- 2 2.0 3.0 24 153
r 0.37168 1 0 ack 40 ------- 1 1.0 0.0 28 142
+ 0.37168 0 1 tcp 1040 ------- 1 0.0 1.0 48 154
r 0.37232 0 1 tcp 1040 ------- 1 0.0 1.0 33 117
+ 0.37232 1 0 ack 40 ------- 1 1.0 0.0 33 155
- 0.37232 1 0 ack 40 ------- 1 1.0 0.0 33 155
- 0.37312 0 1 tcp 1040 ------- 1 0.0 1.0 40 132
- 0.37392 2 3 tcp 1040 ------- 2 2.0 3.0 37 105
r 0.3756 2 3 tcp 1040 ------- 2 2.0 3.0 33 89
+ 0.3756 3 2 ack 40 ------- 2 3.0 2.0 23 156
- 0.3756 3 2 ack 40 ------- 2 3.0 2.0 23 156
r 0.37584 1 0 ack 40 ------- 1 1.0 0.0 29 144
+ 0.37584 0 1 tcp 1040 ------- 1 0.0 1.0 49 157
r 0.37648 0 1 tcp 1040 ------- 1 0.0 1.0 34 118
+ 0.37648 1 0 ack 40 ------- 1 1.0 0.0 34 158
- 0.37648 1 0 ack 40 ------- 1 1.0 0.0 34 158
- 0.37728 0 1 tcp 1040 ------- 1 0.0 1.0 41 135
r 0.3776 3 2 ack 40 ------- 2 3.0 2.0 23 150
r 0.38 1 0 ack 40 ------- 1 1.0 0.0 30 147
+ 0.38 0 1 tcp 1040 ------- 1 0.0 1.0 50 159
r 0.38064 0 1 tcp 1040 ------- 1 0.0 1.0 35 121
+ 0.38064 1 0 ack 40 ------- 1 1.0 0.0 35 160
- 0.38064 1 0 ack 40 ------- 1 1.0 0.0 35 160
- 0.38144 0 1 tcp 1040 ------- 1 0.0 1.0 42 138
- 0.38224 2 3 tcp 1040 ------- 2 2.0 3.0 39 110
r 0.38392 2 3 tcp 1040 ------- 2 2.0 3.0 35 96
+ 0.38392 3 2 ack 40 ------- 2 3.0 2.0 23 161
- 0.38392 3 2 ack 40 ------- 2 3.0 2.0 23 161
r 0.38416 1 0 ack 40 ------- 1 1.0 0.0 31 149
+ 0.38416 0 1 tcp 1040 ------- 1 0.0 1.0 51 162
r 0.3848 0 1 tcp 1040 ------- 1 0.0 1.0 36 122
+ 0.3848 1 0 ack 40 ------- 1 1.0 0.0 36 163
- 0.3848 1 0 ack 40 ------- 1 1.0 0.0 36 163
- 0.3856 0 1 tcp 1040 ------- 1 0.0 1.0 43 141
r 0.38592 3 2 ack 40 ------- 2 3.0 2.0 23 156
r 0.38832 1 0 ack 40 ------- 1 1.0 0.0 32 152
+ 0.38832 0 1 tcp 1040 ------- 1 0.0 1.0 52 164
r 0.38896 0 1 tcp 1040 ------- 1 0.0 1.0 37 125
+ 0.38896 1 0 ack 40 ------- 1 1.0 0.0 37 165
- 0.38896 1 0 ack 40 ------- 1 1.0 0.0 37 165
- 0.38976 0 1 tcp 1040 ------- 1 0.0 1.0 44 143
- 0.39056 2 3 tcp 1040 ------- 2 2.0 3.0 40 116
r 0.39224 2 3 tcp 1040 ------- 2 2.0 3.0 37 105
+ 0.39224 3 2 ack 40 ------- 2 3.0 2.0 23 166
- 0.39224 3 2 ack 40 ------- 2 3.0 2.0 23 166
r 0.39248 1 0 ack 40 ------- 1 1.0 0.0 33 155
+ 0.39248 0 1 tcp 1040 ------- 1 0.0 1.0 53 167
r 0.39312 0 1 tcp 1040 ------- 1 0.0 1.0 39 129
+ 0.39312 1 0 ack 40 ------- 1 1.0 0.0 37 168
- 0.39312 1 0 ack 40 ------- 1 1.0 0.0 37 168
- 0.39392 0 1 tcp 1040 ------- 1 0.0 1.0 45 146
r 0.39424 3 2 ack 40 ------- 2 3.0 2.0 23 161
r 0.39664 1 0 ack 40 ------- 1 1.0 0.0 34 158
+ 0.39664 0 1 tcp 1040 ------- 1 0.0 1.0 54 169
r 0.39728 0 1 tcp 1040 ------- 1 0.0 1.0 40 132
+ 0.39728 1 0 ack 40 ------- 1 1.0 0.0 37 170
- 0.39728 1 0 ack 40 ------- 1 1.0 0.0 37 170
- 0.39808 0 1 tcp 1040 ------- 1 0.0 1.0 46 148
- 0.39888 2 3 tcp 1040 ------- 2 2.0 3.0 41 124
r 0.40056 2 3 tcp 1040 ------- 2 2.0 3.0 39 110
+ 0.40056 3 2 ack 40 ------- 2 3.0 2.0 23 171
- 0.40056 3 2 ack 40 ------- 2 3.0 2.0 23 171
r 0.4008 1 0 ack 40 ------- 1 1.0 0.0 35 160
+ 0.4008 0 1 tcp 1040 ------- 1 0.0 1.0 55 172
r 0.40144 0 1 tcp 1040 ------- 1 0.0 1.0 41 135
+ 0.40144 1 0 ack 40 ------- 1 1.0 0.0 37 173
- 0.40144 1 0 ack 40 ------- 1 1.0 0.0 37 173
- 0.40224 0 1 tcp 1040 ------- 1 0.0 1.0 47 151
r 0.40256 3 2 ack 40 ------- 2 3.0 2.0 23 166
r 0.40496 1 0 ack 40 ------- 1 1.0 0.0 36 163
+ 0.40496 0 1 tcp 1040 ------- 1 0.0 1.0 56 174
r 0.4056 0 1 tcp 1040 ------- 1 0.0 1.0 42 138
+ 0.4056 1 0 ack 40 ------- 1 1.0 0.0 37 175
- 0.4056 1 0 ack 40 ------- 1 1.0 0.0 37 175
- 0.4064 0 1 tcp 1040 ------- 1 0.0 1.0 48 154
- 0.4072 2 3 tcp 1040 ------- 2 2.0 3.0 42 131
r 0.40888 2 3 tcp 1040 ------- 2 2.0 3.0 40 116
+ 0.40888 3 2 ack 40 ------- 2 3.0 2.0 23 176
- 0.40888 3 2 ack 40 ------- 2 3.0 2.0 23 176
r 0.40912 1 0 ack 40 ------- 1 1.0 0.0 37 165
+ 0.40912 0 1 tcp 1040 ------- 1 0.0 1.0 57 177
r 0.40976 0 1 tcp 1040 ------- 1 0.0 1.0 43 141
+ 0.40976 1 0 ack 40 ------- 1 1.0 0.0 37 178
- 0.40976 1 0 ack 40 ------- 1 1.0 0.0 37 178
- 0.41056 0 1 tcp 1040 ------- 1 0.0 1.0 49 157
r 0.41088 3 2 ack 40 ------- 2 3.0 2.0 23 171
r 0.41328 1 0 ack 40 ------- 1 1.0 0.0 37 168
r 0.41392 0 1 tcp 1040 ------- 1 0.0 1.0 44 143
+ 0.41392 1 0 ack 40 ------- 1 1.0 0.0 37 179
- 0.41392 1 0 ack 40 ------- 1 1.0 0.0 37 179
- 0.41472 0 1 tcp 1040 ------- 1 0.0 1.0 50 159
- 0.41552 2 3 tcp 1040 ------- 2 2.0 3.0 43 137
r 0.4172 2 3 tcp 1040 ------- 2 2.0 3.0 41 124
+ 0.4172 3 2 ack 40 ------- 2 3.0 2.0 23 180
- 0.4172 3 2 ack 40 ------- 2 3.0 2.0 23 180
r 0.41744 1 0 ack 40 ------- 1 1.0 0.0 37 170
r 0.41808 0 1 tcp 1040 ------- 1 0.0 1.0 45 146
+ 0.41808 1 0 ack 40 ------- 1 1.0 0.0 37 181
- 0.41808 1 0 ack 40 ------- 1 1.0 0.0 37 181
- 0.41888 0 1 tcp 1040 ------- 1 0.0 1.0 51 162
r 0.4192 3 2 ack 40 ------- 2 3.0 2.0 23 176
r 0.4216 1 0 ack 40 ------- 1 1.0 0.0 37 173
+ 0.4216 0 1 tcp 1040 ---A--- 1 0.0 1.0 38 182
r 0.42224 0 1 tcp 1040 ------- 1 0.0 1.0 46 148
+ 0.42224 1 0 ack 40 ------- 1 1.0 0.0 37 183
- 0.42224 1 0 ack 40 ------- 1 1.0 0.0 37 183
- 0.42304 0 1 tcp 1040 ------- 1 0.0 1.0 52 164
- 0.42384 2 3 tcp 1040 ---A--- 2 2.0 3.0 24 153
r 0.42552 2 3 tcp 1040 ------- 2 2.0 3.0 42 131
+ 0.42552 3 2 ack 40 ------- 2 3.0 2.0 23 184
- 0.42552 3 2 ack 40 ------- 2 3.0 2.0 23 184
r 0.42576 1 0 ack 40 ------- 1 1.0 0.0 37 175
r 0.4264 0 1 tcp 1040 ------- 1 0.0 1.0 47 151
+ 0.4264 1 0 ack 40 ------- 1 1.0 0.0 37 185
- 0.4264 1 0 ack 40 ------- 1 1.0 0.0 37 185
- 0.4272 0 1 tcp 1040 ------- 1 0.0 1.0 53 167
r 0.42752 3 2 ack 40 ------- 2 3.0 2.0 23 180
r 0.42992 1 0 ack 40 ------- 1 1.0 0.0 37 178
r 0.43056 0 1 tcp 1040 ------- 1 0.0 1.0 48 154
+ 0.43056 1 0 ack 40 ------- 1 1.0 0.0 37 186
- 0.43056 1 0 ack 40 ------- 1 1.0 0.0 37 186
- 0.43136 0 1 tcp 1040 ------- 1 0.0 1.0 54 169
r 0.43384 2 3 tcp 1040 ------- 2 2.0 3.0 43 137
+ 0.43384 3 2 ack 40 ------- 2 3.0 2.0 23 187
- 0.43384 3 2 ack 40 ------- 2 3.0 2.0 23 187
r 0.43408 1 0 ack 40 ------- 1 1.0 0.0 37 179
r 0.43472 0 1 tcp 1040 ------- 1 0.0 1.0 49 157
+ 0.43472 1 0 ack 40 ------- 1 1.0 0.0 37 188
- 0.43472 1 0 ack 40 ------- 1 1.0 0.0 37 188
- 0.43552 0 1 tcp 1040 ------- 1 0.0 1.0 55 172
r 0.43584 3 2 ack 40 ------- 2 3.0 2.0 23 184
r 0.43824 1 0 ack 40 ------- 1 1.0 0.0 37 181
r 0.43888 0 1 tcp 1040 ------- 1 0.0 1.0 50 159
+ 0.43888 1 0 ack 40 ------- 1 1.0 0.0 37 189
- 0.43888 1 0 ack 40 ------- 1 1.0 0.0 37 189
- 0.43968 0 1 tcp 1040 ------- 1 0.0 1.0 56 174
r 0.44216 2 3 tcp 1040 ---A--- 2 2.0 3.0 24 153
+ 0.44216 3 2 ack 40 ------- 2 3.0 2.0 25 190
- 0.44216 3 2 ack 40 ------- 2 3.0 2.0 25 190
r 0.4424 1 0 ack 40 ------- 1 1.0 0.0 37 183
r 0.44304 0 1 tcp 1040 ------- 1 0.0 1.0 51 162
+ 0.44304 1 0 ack 40 ------- 1 1.0 0.0 37 191
- 0.44304 1 0 ack 40 ------- 1 1.0 0.0 37 191
- 0.44384 0 1 tcp 1040 ------- 1 0.0 1.0 57 177
r 0.44416 3 2 ack 40 ------- 2 3.0 2.0 23 187
r 0.44656 1 0 ack 40 ------- 1 1.0 0.0 37 185
r 0.4472 0 1 tcp 1040 ------- 1 0.0 1.0 52 164
+ 0.4472 1 0 ack 40 ------- 1 1.0 0.0 37 192
- 0.4472 1 0 ack 40 ------- 1 1.0 0.0 37 192
- 0.448 0 1 tcp 1040 ---A--- 1 0.0 1.0 38 182
r 0.45072 1 0 ack 40 ------- 1 1.0 0.0 37 186
r 0.45136 0 1 tcp 1040 ------- 1 0.0 1.0 53 167
+ 0.45136 1 0 ack 40 ------- 1 1.0 0.0 37 193
- 0.45136 1 0 ack 40 ------- 1 1.0 0.0 37 193
r 0.45248 3 2 ack 40 ------- 2 3.0 2.0 25 190
+ 0.45248 2 3 tcp 1040 ------- 2 2.0 3.0 26 194
- 0.45248 2 3 tcp 1040 ------- 2 2.0 3.0 26 194
+ 0.45248 2 3 tcp 1040 ------- 2 2.0 3.0 27 195
r 0.45488 1 0 ack 40 ------- 1 1.0 0.0 37 188
r 0.45552 0 1 tcp 1040 ------- 1 0.0 1.0 54 169
+ 0.45552 1 0 ack 40 ------- 1 1.0 0.0 37 196
- 0.45552 1 0 ack 40 ------- 1 1.0 0.0 37 196
r 0.45904 1 0 ack 40 ------- 1 1.0 0.0 37 189
r 0.45968 0 1 tcp 1040 ------- 1 0.0 1.0 55 172
+ 0.45968 1 0 ack 40 ------- 1 1.0 0.0 37 197
- 0.45968 1 0 ack 40 ------- 1 1.0 0.0 37 197
- 0.4608 2 3 tcp 1040 ------- 2 2.0 3.0 27 195
r 0.4632 1 0 ack 40 ------- 1 1.0 0.0 37 191
r 0.46384 0 1 tcp 1040 ------- 1 0.0 1.0 56 174
+ 0.46384 1 0 ack 40 ------- 1 1.0 0.0 37 198
- 0.46384 1 0 ack 40 ------- 1 1.0 0.0 37 198
r 0.46736 1 0 ack 40 ------- 1 1.0 0.0 37 192
r 0.468 0 1 tcp 1040 ------- 1 0.0 1.0 57 177
+ 0.468 1 0 ack 40 ------- 1 1.0 0.0 37 199
- 0.468 1 0 ack 40 ------- 1 1.0 0.0 37 199
r 0.4708 2 3 tcp 1040 ------- 2 2.0 3.0 26 194
+ 0.4708 3 2 ack 40 ------- 2 3.0 2.0 27 200
- 0.4708 3 2 ack 40 ------- 2 3.0 2.0 27 200
r 0.47152 1 0 ack 40 ------- 1 1.0 0.0 37 193
r 0.47216 0 1 tcp 1040 ---A--- 1 0.0 1.0 38 182
+ 0.47216 1 0 ack 40 ------- 1 1.0 0.0 57 201
- 0.47216 1 0 ack 40 ------- 1 1.0 0.0 57 201
r 0.47568 1 0 ack 40 ------- 1 1.0 0.0 37 196
r 0.47912 2 3 tcp 1040 ------- 2 2.0 3.0 27 195
+ 0.47912 3 2 ack 40 ------- 2 3.0 2.0 27 202
- 0.47912 3 2 ack 40 ------- 2 3.0 2.0 27 202
r 0.47984 1 0 ack 40 ------- 1 1.0 0.0 37 197
r 0.48112 3 2 ack 40 ------- 2 3.0 2.0 27 200
+ 0.48112 2 3 tcp 1040 ------- 2 2.0 3.0 28 203
- 0.48112 2 3 tcp 1040 ------- 2 2.0 3.0 28 203
+ 0.48112 2 3 tcp 1040 ------- 2 2.0 3.0 29 204
+ 0.48112 2 3 tcp 1040 ------- 2 2.0 3.0 30 205
r 0.484 1 0 ack 40 ------- 1 1.0 0.0 37 198
r 0.48816 1 0 ack 40 ------- 1 1.0 0.0 37 199
r 0.48944 3 2 ack 40 ------- 2 3.0 2.0 27 202
+ 0.48944 2 3 tcp 1040 ------- 2 2.0 3.0 31 206
- 0.48944 2 3 tcp 1040 ------- 2 2.0 3.0 29 204
r 0.49232 1 0 ack 40 ------- 1 1.0 0.0 57 201
+ 0.49232 0 1 tcp 1040 ------- 1 0.0 1.0 58 207
- 0.49232 0 1 tcp 1040 ------- 1 0.0 1.0 58 207
+ 0.49232 0 1 tcp 1040 ------- 1 0.0 1.0 59 208
- 0.49648 0 1 tcp 1040 ------- 1 0.0 1.0 59 208
- 0.49776 2 3 tcp 1040 ------- 2 2.0 3.0 30 205
r 0.49944 2 3 tcp 1040 ------- 2 2.0 3.0 28 203
+ 0.49944 3 2 ack 40 ------- 2 3.0 2.0 29 209
- 0.49944 3 2 ack 40 ------- 2 3.0 2.0 29 209
- 0.50608 2 3 tcp 1040 ------- 2 2.0 3.0 31 206
r 0.50776 2 3 tcp 1040 ------- 2 2.0 3.0 29 204
+ 0.50776 3 2 ack 40 ------- 2 3.0 2.0 29 210
- 0.50776 3 2 ack 40 ------- 2 3.0 2.0 29 210
r 0.50976 3 2 ack 40 ------- 2 3.0 2.0 29 209
+ 0.50976 2 3 tcp 1040 ------- 2 2.0 3.0 32 211
+ 0.50976 2 3 tcp 1040 ------- 2 2.0 3.0 33 212
- 0.5144 2 3 tcp 1040 ------- 2 2.0 3.0 32 211
r 0.51608 2 3 tcp 1040 ------- 2 2.0 3.0 30 205
+ 0.51608 3 2 ack 40 ------- 2 3.0 2.0 31 213
- 0.51608 3 2 ack 40 ------- 2 3.0 2.0 31 213
r 0.51648 0 1 tcp 1040 ------- 1 0.0 1.0 58 207
+ 0.51648 1 0 ack 40 ------- 1 1.0 0.0 58 214
- 0.51648 1 0 ack 40 ------- 1 1.0 0.0 58 214
r 0.51808 3 2 ack 40 ------- 2 3.0 2.0 29 210
+ 0.51808 2 3 tcp 1040 ------- 2 2.0 3.0 34 215
r 0.52064 0 1 tcp 1040 ------- 1 0.0 1.0 59 208
+ 0.52064 1 0 ack 40 ------- 1 1.0 0.0 59 216
- 0.52064 1 0 ack 40 ------- 1 1.0 0.0 59 216
- 0.52272 2 3 tcp 1040 ------- 2 2.0 3.0 33 212
r 0.5244 2 3 tcp 1040 ------- 2 2.0 3.0 31 206
+ 0.5244 3 2 ack 40 ------- 2 3.0 2.0 31 217
- 0.5244 3 2 ack 40 ------- 2 3.0 2.0 31 217
r 0.5264 3 2 ack 40 ------- 2 3.0 2.0 31 213
+ 0.5264 2 3 tcp 1040 ------- 2 2.0 3.0 35 218
+ 0.5264 2 3 tcp 1040 ------- 2 2.0 3.0 36 219
- 0.53104 2 3 tcp 1040 ------- 2 2.0 3.0 34 215
r 0.53272 2 3 tcp 1040 ------- 2 2.0 3.0 32 211
+ 0.53272 3 2 ack 40 ------- 2 3.0 2.0 33 220
- 0.53272 3 2 ack 40 ------- 2 3.0 2.0 33 220
r 0.53472 3 2 ack 40 ------- 2 3.0 2.0 31 217
+ 0.53472 2 3 tcp 1040 ------- 2 2.0 3.0 37 221
r 0.53664 1 0 ack 40 ------- 1 1.0 0.0 58 214
+ 0.53664 0 1 tcp 1040 ------- 1 0.0 1.0 60 222
- 0.53664 0 1 tcp 1040 ------- 1 0.0 1.0 60 222
+ 0.53664 0 1 tcp 1040 ------- 1 0.0 1.0 61 223