V -t * -v 1.0a5 -a 0
A -t * -n 1 -p 0 -o 0x7fffffff -c 30 -a 1
A -t * -h 1 -m 1073741823 -s 0
c -t * -i 1 -n Green
c -t * -i 2 -n Red
n -t * -a 0 -s 0 -S UP -v circle -c black -i black
n -t * -a 1 -s 1 -S UP -v circle -c black -i black
n -t * -a 2 -s 2 -S UP -v circle -c black -i black
n -t * -a 3 -s 3 -S UP -v circle -c black -i black
l -t * -s 0 -d 1 -S UP -r 2000000 -D 0.02 -c black -o left
l -t * -s 2 -d 3 -S UP -r 1000000 -D 0.01 -c black -o right
X -t * -n 4 -r 100Mb -D 300ms -o left
L -t * -s 4 -d 0 -o up
L -t * -s 4 -d 1 -o down
L -t * -s 4 -d 2 -o up
L -t * -s 4 -d 3 -o down
q -t * -s 0 -d 1 -a 0.5
q -t * -s 1 -d 0 -a 0.5
q -t * -s 2 -d 3 -a 0.5
q -t * -s 3 -d 2 -a 0.5
+ -t 0.1 -s 0 -d 1 -p tcp -e 40 -c 1 -i 0 -a 1 -x {0.0 1.0 0 ------- null}
- -t 0.1 -s 0 -d 1 -p tcp -e 40 -c 1 -i 0 -a 1 -x {0.0 1.0 0 ------- null}
h -t 0.1 -s 0 -d 1 -p tcp -e 40 -c 1 -i 0 -a 1 -x {0.0 1.0 -1 ------- null}
+ -t 0.1 -s 2 -d 3 -p tcp -e 40 -c 2 -i 1 -a 2 -x {2.0 3.0 0 ------- null}
- -t 0.1 -s 2 -d 3 -p tcp -e 40 -c 2 -i 1 -a 2 -x {2.0 3.0 0 ------- null}
h -t 0.1 -s 2 -d 3 -p tcp -e 40 -c 2 -i 1 -a 2 -x {2.0 3.0 -1 ------- null}
r -t 0.11032 -s 2 -d 3 -p tcp -e 40 -c 2 -i 1 -a 2 -x {2.0 3.0 0 ------- null}
+ -t 0.11032 -s 3 -d 2 -p ack -e 40 -c 2 -i 2 -a 2 -x {3.0 2.0 0 ------- null}
- -t 0.11032 -s 3 -d 2 -p ack -e 40 -c 2 -i 2 -a 2 -x {3.0 2.0 0 ------- null}
h -t 0.11032 -s 3 -d 2 -p ack -e 40 -c 2 -i 2 -a 2 -x {3.0 2.0 -1 ------- null}
r -t 0.12016 -s 0 -d 1 -p tcp -e 40 -c 1 -i 0 -a 1 -x {0.0 1.0 0 ------- null}
+ -t 0.12016 -s 1 -d 0 -p ack -e 40 -c 1 -i 3 -a 1 -x {1.0 0.0 0 ------- null}
- -t 0.12016 -s 1 -d 0 -p ack -e 40 -c 1 -i 3 -a 1 -x {1.0 0.0 0 ------- null}
h -t 0.12016 -s 1 -d 0 -p ack -e 40 -c 1 -i 3 -a 1 -x {1.0 0.0 -1 ------- null}
r -t 0.12064 -s 3 -d 2 -p ack -e 40 -c 2 -i 2 -a 2 -x {3.0 2.0 0 ------- null}
+ -t 0.12064 -s 2 -d 3 -p tcp -e 1040 -c 2 -i 4 -a 2 -x {2.0 3.0 1 ------- null}
- -t 0.12064 -s 2 -d 3 -p tcp -e 1040 -c 2 -i 4 -a 2 -x {2.0 3.0 1 ------- null}
h -t 0.12064 -s 2 -d 3 -p tcp -e 1040 -c 2 -i 4 -a 2 -x {2.0 3.0 -1 ------- null}
+ -t 0.12064 -s 2 -d 3 -p tcp -e 1040 -c 2 -i 5 -a 2 -x {2.0 3.0 2 ------- null}
- -t 0.12896 -s 2 -d 3 -p tcp -e 1040 -c 2 -i 5 -a 2 -x {2.0 3.0 2 ------- null}
h -t 0.12896 -s 2 -d 3 -p tcp -e 1040 -c 2 -i 5 -a 2 -x {2.0 3.0 -1 ------- null}
r -t 0.13896 -s 2 -d 3 -p tcp -e 1040 -c 2 -i 4 -a 2 -x {2.0 3.0 1 ------- null}
+ -t 0.13896 -s 3 -d 2 -p ack -e 40 -c 2 -i 6 -a 2 -x {3.0 2.0 1 ------- null}
- -t 0.13896 -s 3 -d 2 -p ack -e 40 -c 2 -i 6 -a 2 -x {3.0 2.0 1 ------- null}
h -t 0.13896 -s 3 -d 2 -p ack -e 40 -c 2 -i 6 -a 2 -x {3.0 2.0 -1 ------- null}
r -t 0.14032 -s 1 -d 0 -p ack -e 40 -c 1 -i 3 -a 1 -x {1.0 0.0 0 ------- null}
+ -t 0.14032 -s 0 -d 1 -p tcp -e 1040 -c 1 -i 7 -a 1 -x {0.0 1.0 1 ------- null}
- -t 0.14032 -s 0 -d 1 -p tcp -e 1040 -c 1 -i 7 -a 1 -x {0.0 1.0 1 ------- null}
h -t 0.14032 -s 0 -d 1 -p tcp -e 1040 -c 1 -i 7 -a 1 -x {0.0 1.0 -1 ------- null}
+ -t 0.14032 -s 0 -d 1 -p tcp -e 1040 -c 1 -i 8 -a 1 -x {0.0 1.0 2 ------- null}
- -t 0.14448 -s 0 -d 1 -p tcp -e 1040 -c 1 -i 8 -a 1 -x {0.0 1.0 2 ------- null}
h -t 0.14448 -s 0 -d 1 -p tcp -e 1040 -c 1 -i 8 -a 1 -x {0.0 1.0 -1 ------- null}
r -t 0.14728 -s 2 -d 3 -p tcp -e 1040 -c 2 -i 5 -a 2 -x {2.0 3.0 2 ------- null}
+ -t 0.14728 -s 3 -d 2 -p ack -e 40 -c 2 -i 9 -a 2 -x {3.0 2.0 2 ------- null}
- -t 0.14728 -s 3 -d 2 -p ack -e 40 -c 2 -i 9 -a 2 -x {3.0 2.0 2 ------- null}
h -t 0.14728 -s 3 -d 2 -p ack -e 40 -c 2 -i 9 -a 2 -x {3.0 2.0 -1 ------- null}
r -t 0.14928 -s 3 -d 2 -p ack -e 40 -c 2 -i 6 -a 2 -x {3.0 2.0 1 ------- null}
+ -t 0.14928 -s 2 -d 3 -p tcp -e 1040 -c 2 -i 10 -a 2 -x {2.0 3.0 3 ------- null}
- -t 0.14928 -s 2 -d 3 -p tcp -e 1040 -c 2 -i 10 -a 2 -x {2.0 3.0 3 ------- null}
h -t 0.14928 -s 2 -d 3 -p tcp -e 1040 -c 2 -i 10 -a 2 -x {2.0 3.0 -1 ------- null}
+ -t 0.14928 -s 2 -d 3 -p tcp -e 1040 -c 2 -i 11 -a 2 -x {2.0 3.0 4 ------- null}
r -t 0.1576 -s 3 -d 2 -p ack -e 40 -c 2 -i 9 -a 2 -x {3.0 2.0 2 ------- null}
+ -t 0.1576 -s 2 -d 3 -p tcp -e 1040 -c 2 -i 12 -a 2 -x {2.0 3.0 5 ------- null}
+ -t 0.1576 -s 2 -d 3 -p tcp -e 1040 -c 2 -i 13 -a 2 -x {2.0 3.0 6 ------- null}
- -t 0.1576 -s 2 -d 3 -p tcp -e 1040 -c 2 -i 11 -a 2 -x {2.0 3.0 4 ------- null}
h -t 0.1576 -s 2 -d 3 -p tcp -e 1040 -c 2 -i 11 -a 2 -x {2.0 3.0 -1 ------- null}
r -t 0.16448 -s 0 -d 1 -p tcp -e 1040 -c 1 -i 7 -a 1 -x {0.0 1.0 1 ------- null}
+ -t 0.16448 -s 1 -d 0 -p ack -e 40 -c 1 -i 14 -a 1 -x {1.0 0.0 1 ------- null}
- -t 0.16448 -s 1 -d 0 -p ack -e 40 -c 1 -i 14 -a 1 -x {1.0 0.0 1 ------- null}
h -t 0.16448 -s 1 -d 0 -p ack -e 40 -c 1 -i 14 -a 1 -x {1.0 0.0 -1 ------- null}
- -t 0.16592 -s 2 -d 3 -p tcp -e 1040 -c 2 -i 12 -a 2 -x {2.0 3.0 5 ------- null}
h -t 0.16592 -s 2 -d 3 -p tcp -e 1040 -c 2 -i 12 -a 2 -x {2.0 3.0 -1 ------- null}
r -t 0.1676 -s 2 -d 3 -p tcp -e 1040 -c 2 -i 10 -a 2 -x {2.0 3.0 3 ------- null}
+ -t 0.1676 -s 3 -d 2 -p ack -e 40 -c 2 -i 15 -a 2 -x {3.0 2.0 3 ------- null}
- -t 0.1676 -s 3 -d 2 -p ack -e 40 -c 2 -i 15 -a 2 -x {3.0 2.0 3 ------- null}
h -t 0.1676 -s 3 -d 2 -p ack -e 40 -c 2 -i 15 -a 2 -x {3.0 2.0 -1 ------- null}
r -t 0.16864 -s 0 -d 1 -p tcp -e 1040 -c 1 -i 8 -a 1 -x {0.0 1.0 2 ------- null}
+ -t 0.16864 -s 1 -d 0 -p ack -e 40 -c 1 -i 16 -a 1 -x {1.0 0.0 2 ------- null}
- -t 0.16864 -s 1 -d 0 -p ack -e 40 -c 1 -i 16 -a 1 -x {1.0 0.0 2 ------- null}
h -t 0.16864 -s 1 -d 0 -p ack -e 40 -c 1 -i 16 -a 1 -x {1.0 0.0 -1 ------- null}
- -t 0.17424 -s 2 -d 3 -p tcp -e 1040 -c 2 -i 13 -a 2 -x {2.0 3.0 6 ------- null}
h -t 0.17424 -s 2 -d 3 -p tcp -e 1040 -c 2 -i 13 -a 2 -x {2.0 3.0 -1 ------- null}
r -t 0.17592 -s 2 -d 3 -p tcp -e 1040 -c 2 -i 11 -a 2 -x {2.0 3.0 4 ------- null}
+ -t 0.17592 -s 3 -d 2 -p ack -e 40 -c 2 -i 17 -a 2 -x {3.0 2.0 4 ------- null}
- -t 0.17592 -s 3 -d 2 -p ack -e 40 -c 2 -i 17 -a 2 -x {3.0 2.0 4 ------- null}
h -t 0.17592 -s 3 -d 2 -p ack -e 40 -c 2 -i 17 -a 2 -x {3.0 2.0 -1 ------- null}
r -t 0.17792 -s 3 -d 2 -p ack -e 40 -c 2 -i 15 -a 2 -x {3.0 2.0 3 ------- null}
+ -t 0.17792 -s 2 -d 3 -p tcp -e 1040 -c 2 -i 18 -a 2 -x {2.0 3.0 7 ------- null}
+ -t 0.17792 -s 2 -d 3 -p tcp -e 1040 -c 2 -i 19 -a 2 -x {2.0 3.0 8 ------- null}
- -t 0.18256 -s 2 -d 3 -p tcp -e 1040 -c 2 -i 18 -a 2 -x {2.0 3.0 7 ------- null}
h -t 0.18256 -s 2 -d 3 -p tcp -e 1040 -c 2 -i 18 -a 2 -x {2.0 3.0 -1 ------- null}
r -t 0.18424 -s 2 -d 3 -p tcp -e 1040 -c 2 -i 12 -a 2 -x {2.0 3.0 5 ------- null}
+ -t 0.18424 -s 3 -d 2 -p ack -e 40 -c 2 -i 20 -a 2 -x {3.0 2.0 5 ------- null}
- -t 0.18424 -s 3 -d 2 -p ack -e 40 -c 2 -i 20 -a 2 -x {3.0 2.0 5 ------- null}
h -t 0.18424 -s 3 -d 2 -p ack -e 40 -c 2 -i 20 -a 2 -x {3.0 2.0 -1 ------- null}
r -t 0.18464 -s 1 -d 0 -p ack -e 40 -c 1 -i 14 -a 1 -x {1.0 0.0 1 ------- null}
+ -t 0.18464 -s 0 -d 1 -p tcp -e 1040 -c 1 -i 21 -a 1 -x {0.0 1.0 3 ------- null}
- -t 0.18464 -s 0 -d 1 -p tcp -e 1040 -c 1 -i 21 -a 1 -x {0.0 1.0 3 ------- null}
h -t 0.18464 -s 0 -d 1 -p tcp -e 1040 -c 1 -i 21 -a 1 -x {0.0 1.0 -1 ------- null}
+ -t 0.18464 -s 0 -d 1 -p tcp -e 1040 -c 1 -i 22 -a 1 -x {0.0 1.0 4 ------- null}
r -t 0.18624 -s 3 -d 2 -p ack -e 40 -c 2 -i 17 -a 2 -x {3.0 2.0 4 ------- null}
+ -t 0.18624 -s 2 -d 3 -p tcp -e 1040 -c 2 -i 23 -a 2 -x {2.0 3.0 9 ------- null}
+ -t 0.18624 -s 2 -d 3 -p tcp -e 1040 -c 2 -i 24 -a 2 -x {2.0 3.0 10 ------- null}
r -t 0.1888 -s 1 -d 0 -p ack -e 40 -c 1 -i 16 -a 1 -x {1.0 0.0 2 ------- null}
+ -t 0.1888 -s 0 -d 1 -p tcp -e 1040 -c 1 -i 25 -a 1 -x {0.0 1.0 5 ------- null}
+ -t 0.1888 -s 0 -d 1 -p tcp -e 1040 -c 1 -i 26 -a 1 -x {0.0 1.0 6 ------- null}
- -t 0.1888 -s 0 -d 1 -p tcp -e 1040 -c 1 -i 22 -a 1 -x {0.0 1.0 4 ------- null}
h -t 0.1888 -s 0 -d 1 -p tcp -e 1040 -c 1 -i 22 -a 1 -x {0.0 1.0 -1 ------- null}
- -t 0.19088 -s 2 -d 3 -p tcp -e 1040 -c 2 -i 19 -a 2 -x {2.0 3.0 8 ------- null}
h -t 0.19088 -s 2 -d 3 -p tcp -e 1040 -c 2 -i 19 -a 2 -x {2.0 3.0 -1 ------- null}
r -t 0.19256 -s 2 -d 3 -p tcp -e 1040 -c 2 -i 13 -a 2 -x {2.0 3.0 6 ------- null}
+ -t 0.19256 -s 3 -d 2 -p ack -e 40 -c 2 -i 27 -a 2 -x {3.0 2.0 6 ------- null}
- -t 0.19256 -s 3 -d 2 -p ack -e 40 -c 2 -i 27 -a 2 -x {3.0 2.0 6 ------- null}
h -t 0.19256 -s 3 -d 2 -p ack -e 40 -c 2 -i 27 -a 2 -x {3.0 2.0 -1 ------- null}
- -t 0.19296 -s 0 -d 1 -p tcp -e 1040 -c 1 -i 25 -a 1 -x {0.0 1.0 5 ------- null}
h -t 0.19296 -s 0 -d 1 -p tcp -e 1040 -c 1 -i 25 -a 1 -x {0.0 1.0 -1 ------- null}
r -t 0.19456 -s 3 -d 2 -p ack -e 40 -c 2 -i 20 -a 2 -x {3.0 2.0 5 ------- null}
+ -t 0.19456 -s 2 -d 3 -p tcp -e 1040 -c 2 -i 28 -a 2 -x {2.0 3.0 11 ------- null}
+ -t 0.19456 -s 2 -d 3 -p tcp -e 1040 -c 2 -i 29 -a 2 -x {2.0 3.0 12 ------- null}
- -t 0.19712 -s 0 -d 1 -p tcp -e 1040 -c 1 -i 26 -a 1 -x {0.0 1.0 6 ------- null}
h -t 0.19712 -s 0 -d 1 -p tcp -e 1040 -c 1 -i 26 -a 1 -x {0.0 1.0 -1 ------- null}
- -t 0.1992 -s 2 -d 3 -p tcp -e 1040 -c 2 -i 23 -a 2 -x {2.0 3.0 9 ------- null}
h -t 0.1992 -s 2 -d 3 -p tcp -e 1040 -c 2 -i 23 -a 2 -x {2.0 3.0 -1 ------- null}
r -t 0.20088 -s 2 -d 3 -p tcp -e 1040 -c 2 -i 18 -a 2 -x {2.0 3.0 7 ------- null}
+ -t 0.20088 -s 3 -d 2 -p ack -e 40 -c 2 -i 30 -a 2 -x {3.0 2.0 7 ------- null}
- -t 0.20088 -s 3 -d 2 -p ack -e 40 -c 2 -i 30 -a 2 -x {3.0 2.0 7 ------- null}
h -t 0.20088 -s 3 -d 2 -p ack -e 40 -c 2 -i 30 -a 2 -x {3.0 2.0 -1 ------- null}
r -t 0.20288 -s 3 -d 2 -p ack -e 40 -c 2 -i 27 -a 2 -x {3.0 2.0 6 ------- null}
+ -t 0.20288 -s 2 -d 3 -p tcp -e 1040 -c 2 -i 31 -a 2 -x {2.0 3.0 13 ------- null}
+ -t 0.20288 -s 2 -d 3 -p tcp -e 1040 -c 2 -i 32 -a 2 -x {2.0 3.0 14 ------- null}
- -t 0.20752 -s 2 -d 3 -p tcp -e 1040 -c 2 -i 24 -a 2 -x {2.0 3.0 10 ------- null}
h -t 0.20752 -s 2 -d 3 -p tcp -e 1040 -c 2 -i 24 -a 2 -x {2.0 3.0 -1 ------- null}
r -t 0.2088 -s 0 -d 1 -p tcp -e 1040 -c 1 -i 21 -a 1 -x {0.0 1.0 3 ------- null}
+ -t 0.2088 -s 1 -d 0 -p ack -e 40 -c 1 -i 33 -a 1 -x {1.0 0.0 3 ------- null}
- -t 0.2088 -s 1 -d 0 -p ack -e 40 -c 1 -i 33 -a 1 -x {1.0 0.0 3 ------- null}
h -t 0.2088 -s 1 -d 0 -p ack -e 40 -c 1 -i 33 -a 1 -x {1.0 0.0 -1 ------- null}
r -t 0.2092 -s 2 -d 3 -p tcp -e 1040 -c 2 -i 19 -a 2 -x {2.0 3.0 8 ------- null}
+ -t 0.2092 -s 3 -d 2 -p ack -e 40 -c 2 -i 34 -a 2 -x {3.0 2.0 8 ------- null}
- -t 0.2092 -s 3 -d 2 -p ack -e 40 -c 2 -i 34 -a 2 -x {3.0 2.0 8 ------- null}
h -t 0.2092 -s 3 -d 2 -p ack -e 40 -c 2 -i 34 -a 2 -x {3.0 2.0 -1 ------- null}
r -t 0.2112 -s 3 -d 2 -p ack -e 40 -c 2 -i 30 -a 2 -x {3.0 2.0 7 ------- null}
+ -t 0.2112 -s 2 -d 3 -p tcp -e 1040 -c 2 -i 35 -a 2 -x {2.0 3.0 15 ------- null}
+ -t 0.2112 -s 2 -d 3 -p tcp -e 1040 -c 2 -i 36 -a 2 -x {2.0 3.0 16 ------- null}
r -t 0.21296 -s 0 -d 1 -p tcp -e 1040 -c 1 -i 22 -a 1 -x {0.0 1.0 4 ------- null}
+ -t 0.21296 -s 1 -d 0 -p ack -e 40 -c 1 -i 37 -a 1 -x {1.0 0.0 4 ------- null}
- -t 0.21296 -s 1 -d 0 -p ack -e 40 -c 1 -i 37 -a 1 -x {1.0 0.0 4 ------- null}
h -t 0.21296 -s 1 -d 0 -p ack -e 40 -c 1 -i 37 -a 1 -x {1.0 0.0 -1 ------- null}
- -t 0.21584 -s 2 -d 3 -p tcp -e 1040 -c 2 -i 28 -a 2 -x {2.0 3.0 11 ------- null}
h -t 0.21584 -s 2 -d 3 -p tcp -e 1040 -c 2 -i 28 -a 2 -x {2.0 3.0 -1 ------- null}
r -t 0.21712 -s 0 -d 1 -p tcp -e 1040 -c 1 -i 25 -a 1 -x {0.0 1.0 5 ------- null}
+ -t 0.21712 -s 1 -d 0 -p ack -e 40 -c 1 -i 38 -a 1 -x {1.0 0.0 5 ------- null}
- -t 0.21712 -s 1 -d 0 -p ack -e 40 -c 1 -i 38 -a 1 -x {1.0 0.0 5 ------- null}
h -t 0.21712 -s 1 -d 0 -p ack -e 40 -c 1 -i 38 -a 1 -x {1.0 0.0 -1 ------- null}
r -t 0.21752 -s 2 -d 3 -p tcp -e 1040 -c 2 -i 23 -a 2 -x {2.0 3.0 9 ------- null}
+ -t 0.21752 -s 3 -d 2 -p ack -e 40 -c 2 -i 39 -a 2 -x {3.0 2.0 9 ------- null}
- -t 0.21752 -s 3 -d 2 -p ack -e 40 -c 2 -i 39 -a 2 -x {3.0 2.0 9 ------- null}
h -t 0.21752 -s 3 -d 2 -p ack -e 40 -c 2 -i 39 -a 2 -x {3.0 2.0 -1 ------- null}
r -t 0.21952 -s 3 -d 2 -p ack -e 40 -c 2 -i 34 -a 2 -x {3.0 2.0 8 ------- null}
+ -t 0.21952 -s 2 -d 3 -p tcp -e 1040 -c 2 -i 40 -a 2 -x {2.0 3.0 17 ------- null}
+ -t 0.21952 -s 2 -d 3 -p tcp -e 1040 -c 2 -i 41 -a 2 -x {2.0 3.0 18 ------- null}
r -t 0.22128 -s 0 -d 1 -p tcp -e 1040 -c 1 -i 26 -a 1 -x {0.0 1.0 6 ------- null}
+ -t 0.22128 -s 1 -d 0 -p ack -e 40 -c 1 -i 42 -a 1 -x {1.0 0.0 6 ------- null}
- -t 0.22128 -s 1 -d 0 -p ack -e 40 -c 1 -i 42 -a 1 -x {1.0 0.0 6 ------- null}
h -t 0.22128 -s 1 -d 0 -p ack -e 40 -c 1 -i 42 -a 1 -x {1.0 0.0 -1 ------- null}
- -t 0.22416 -s 2 -d 3 -p tcp -e 1040 -c 2 -i 29 -a 2 -x {2.0 3.0 12 ------- null}
h -t 0.22416 -s 2 -d 3 -p tcp -e 1040 -c 2 -i 29 -a 2 -x {2.0 3.0 -1 ------- null}
r -t 0.22584 -s 2 -d 3 -p tcp -e 1040 -c 2 -i 24 -a 2 -x {2.0 3.0 10 ------- null}
+ -t 0.22584 -s 3 -d 2 -p ack -e 40 -c 2 -i 43 -a 2 -x {3.0 2.0 10 ------- null}
- -t 0.22584 -s 3 -d 2 -p ack -e 40 -c 2 -i 43 -a 2 -x {3.0 2.0 10 ------- null}
h -t 0.22584 -s 3 -d 2 -p ack -e 40 -c 2 -i 43 -a 2 -x {3.0 2.0 -1 ------- null}
r -t 0.22784 -s 3 -d 2 -p ack -e 40 -c 2 -i 39 -a 2 -x {3.0 2.0 9 ------- null}
+ -t 0.22784 -s 2 -d 3 -p tcp -e 1040 -c 2 -i 44 -a 2 -x {2.0 3.0 19 ------- null}
+ -t 0.22784 -s 2 -d 3 -p tcp -e 1040 -c 2 -i 45 -a 2 -x {2.0 3.0 20 ------- null}
r -t 0.22896 -s 1 -d 0 -p ack -e 40 -c 1 -i 33 -a 1 -x {1.0 0.0 3 ------- null}
+ -t 0.22896 -s 0 -d 1 -p tcp -e 1040 -c 1 -i 46 -a 1 -x {0.0 1.0 7 ------- null}
- -t 0.22896 -s 0 -d 1 -p tcp -e 1040 -c 1 -i 46 -a 1 -x {0.0 1.0 7 ------- null}
h -t 0.22896 -s 0 -d 1 -p tcp -e 1040 -c 1 -i 46 -a 1 -x {0.0 1.0 -1 ------- null}
+ -t 0.22896 -s 0 -d 1 -p tcp -e 1040 -c 1 -i 47 -a 1 -x {0.0 1.0 8 ------- null}
- -t 0.23248 -s 2 -d 3 -p tcp -e 1040 -c 2 -i 31 -a 2 -x {2.0 3.0 13 ------- null}
h -t 0.23248 -s 2 -d 3 -p tcp -e 1040 -c 2 -i 31 -a 2 -x {2.0 3.0 -1 ------- null}
r -t 0.23312 -s 1 -d 0 -p ack -e 40 -c 1 -i 37 -a 1 -x {1.0 0.0 4 ------- null}
+ -t 0.23312 -s 0 -d 1 -p tcp -e 1040 -c 1 -i 48 -a 1 -x {0.0 1.0 9 ------- null}
+ -t 0.23312 -s 0 -d 1 -p tcp -e 1040 -c 1 -i 49 -a 1 -x {0.0 1.0 10 ------- null}
- -t 0.23312 -s 0 -d 1 -p tcp -e 1040 -c 1 -i 47 -a 1 -x {0.0 1.0 8 ------- null}
h -t 0.23312 -s 0 -d 1 -p tcp -e 1040 -c 1 -i 47 -a 1 -x {0.0 1.0 -1 ------- null}
r -t 0.23416 -s 2 -d 3 -p tcp -e 1040 -c 2 -i 28 -a 2 -x {2.0 3.0 11 ------- null}
+ -t 0.23416 -s 3 -d 2 -p ack -e 40 -c 2 -i 50 -a 2 -x {3.0 2.0 11 ------- null}
- -t 0.23416 -s 3 -d 2 -p ack -e 40 -c 2 -i 50 -a 2 -x {3.0 2.0 11 ------- null}
h -t 0.23416 -s 3 -d 2 -p ack -e 40 -c 2 -i 50 -a 2 -x {3.0 2.0 -1 ------- null}
r -t 0.23616 -s 3 -d 2 -p ack -e 40 -c 2 -i 43 -a 2 -x {3.0 2.0 10 ------- null}
+ -t 0.23616 -s 2 -d 3 -p tcp -e 1040 -c 2 -i 51 -a 2 -x {2.0 3.0 21 ------- null}
+ -t 0.23616 -s 2 -d 3 -p tcp -e 1040 -c 2 -i 52 -a 2 -x {2.0 3.0 22 ------- null}
r -t 0.23728 -s 1 -d 0 -p ack -e 40 -c 1 -i 38 -a 1 -x {1.0 0.0 5 ------- null}
+ -t 0.23728 -s 0 -d 1 -p tcp -e 1040 -c 1 -i 53 -a 1 -x {0.0 1.0 11 ------- null}
+ -t 0.23728 -s 0 -d 1 -p tcp -e 1040 -c 1 -i 54 -a 1 -x {0.0 1.0 12 ------- null}
- -t 0.23728 -s 0 -d 1 -p tcp -e 1040 -c 1 -i 48 -a 1 -x {0.0 1.0 9 ------- null}
h -t 0.23728 -s 0 -d 1 -p tcp -e 1040 -c 1 -i 48 -a 1 -x {0.0 1.0 -1 ------- null}
- -t 0.2408 -s 2 -d 3 -p tcp -e 1040 -c 2 -i 32 -a 2 -x {2.0 3.0 14 ------- null}
h -t 0.2408 -s 2 -d 3 -p tcp -e 1040 -c 2 -i 32 -a 2 -x {2.0 3.0 -1 ------- null}
r -t 0.24144 -s 1 -d 0 -p ack -e 40 -c 1 -i 42 -a 1 -x {1.0 0.0 6 ------- null}
+ -t 0.24144 -s 0 -d 1 -p tcp -e 1040 -c 1 -i 55 -a 1 -x {0.0 1.0 13 ------- null}
+ -t 0.24144 -s 0 -d 1 -p tcp -e 1040 -c 1 -i 56 -a 1 -x {0.0 1.0 14 ------- null}
- -t 0.24144 -s 0 -d 1 -p tcp -e 1040 -c 1 -i 49 -a 1 -x {0.0 1.0 10 ------- null}
h -t 0.24144 -s 0 -d 1 -p tcp -e 1040 -c 1 -i 49 -a 1 -x {0.0 1.0 -1 ------- null}
r -t 0.24248 -s 2 -d 3 -p tcp -e 1040 -c 2 -i 29 -a 2 -x {2.0 3.0 12 ------- null}
+ -t 0.24248 -s 3 -d 2 -p ack -e 40 -c 2 -i 57 -a 2 -x {3.0 2.0 12 ------- null}
- -t 0.24248 -s 3 -d 2 -p ack -e 40 -c 2 -i 57 -a 2 -x {3.0 2.0 12 ------- null}
h -t 0.24248 -s 3 -d 2 -p ack -e 40 -c 2 -i 57 -a 2 -x {3.0 2.0 -1 ------- null}
r -t 0.24448 -s 3 -d 2 -p ack -e 40 -c 2 -i 50 -a 2 -x {3.0 2.0 11 ------- null}
+ -t 0.24448 -s 2 -d 3 -p tcp -e 1040 -c 2 -i 58 -a 2 -x {2.0 3.0 23 ------- null}
+ -t 0.24448 -s 2 -d 3 -p tcp -e 1040 -c 2 -i 59 -a 2 -x {2.0 3.0 24 ------- null}
d -t 0.24448 -s 2 -d 3 -p tcp -e 1040 -c 2 -i 59 -a 2 -x {2.0 3.0 24 ------- null}
- -t 0.2456 -s 0 -d 1 -p tcp -e 1040 -c 1 -i 53 -a 1 -x {0.0 1.0 11 ------- null}
h -t 0.2456 -s 0 -d 1 -p tcp -e 1040 -c 1 -i 53 -a 1 -x {0.0 1.0 -1 ------- null}
- -t 0.24912 -s 2 -d 3 -p tcp -e 1040 -c 2 -i 35 -a 2 -x {2.0 3.0 15 ------- null}
h -t 0.24912 -s 2 -d 3 -p tcp -e 1040 -c 2 -i 35 -a 2 -x {2.0 3.0 -1 ------- null}
- -t 0.24976 -s 0 -d 1 -p tcp -e 1040 -c 1 -i 54 -a 1 -x {0.0 1.0 12 ------- null}
h -t 0.24976 -s 0 -d 1 -p tcp -e 1040 -c 1 -i 54 -a 1 -x {0.0 1.0 -1 ------- null}
r -t 0.2508 -s 2 -d 3 -p tcp -e 1040 -c 2 -i 31 -a 2 -x {2.0 3.0 13 ------- null}
+ -t 0.2508 -s 3 -d 2 -p ack -e 40 -c 2 -i 60 -a 2 -x {3.0 2.0 13 ------- null}
- -t 0.2508 -s 3 -d 2 -p ack -e 40 -c 2 -i 60 -a 2 -x {3.0 2.0 13 ------- null}
h -t 0.2508 -s 3 -d 2 -p ack -e 40 -c 2 -i 60 -a 2 -x {3.0 2.0 -1 ------- null}
r -t 0.2528 -s 3 -d 2 -p ack -e 40 -c 2 -i 57 -a 2 -x {3.0 2.0 12 ------- null}
+ -t 0.2528 -s 2 -d 3 -p tcp -e 1040 -c 2 -i 61 -a 2 -x {2.0 3.0 25 ------- null}
+ -t 0.2528 -s 2 -d 3 -p tcp -e 1040 -c 2 -i 62 -a 2 -x {2.0 3.0 26 ------- null}
d -t 0.2528 -s 2 -d 3 -p tcp -e 1040 -c 2 -i 62 -a 2 -x {2.0 3.0 26 ------- null}
r -t 0.25312 -s 0 -d 1 -p tcp -e 1040 -c 1 -i 46 -a 1 -x {0.0 1.0 7 ------- null}
+ -t 0.25312 -s 1 -d 0 -p ack -e 40 -c 1 -i 63 -a 1 -x {1.0 0.0 7 ------- null}
- -t 0.25312 -s 1 -d 0 -p ack -e 40 -c 1 -i 63 -a 1 -x {1.0 0.0 7 ------- null}
h -t 0.25312 -s 1 -d 0 -p ack -e 40 -c 1 -i 63 -a 1 -x {1.0 0.0 -1 ------- null}
- -t 0.25392 -s 0 -d 1 -p tcp -e 1040 -c 1 -i 55 -a 1 -x {0.0 1.0 13 ------- null}
h -t 0.25392 -s 0 -d 1 -p tcp -e 1040 -c 1 -i 55 -a 1 -x {0.0 1.0 -1 ------- null}
r -t 0.25728 -s 0 -d 1 -p tcp -e 1040 -c 1 -i 47 -a 1 -x {0.0 1.0 8 ------- null}
+ -t 0.25728 -s 1 -d 0 -p ack -e 40 -c 1 -i 64 -a 1 -x {1.0 0.0 8 ------- null}
- -t 0.25728 -s 1 -d 0 -p ack -e 40 -c 1 -i 64 -a 1 -x {1.0 0.0 8 ------- null}
h -t 0.25728 -s 1 -d 0 -p ack -e 40 -c 1 -i 64 -a 1 -x {1.0 0.0 -1 ------- null}
- -t 0.25744 -s 2 -d 3 -p tcp -e 1040 -c 2 -i 36 -a 2 -x {2.0 3.0 16 ------- null}
h -t 0.25744 -s 2 -d 3 -p tcp -e 1040 -c 2 -i 36 -a 2 -x {2.0 3.0 -1 ------- null}
- -t 0.25808 -s 0 -d 1 -p tcp -e 1040 -c 1 -i 56 -a 1 -x {0.0 1.0 14 ------- null}
h -t 0.25808 -s 0 -d 1 -p tcp -e 1040 -c 1 -i 56 -a 1 -x {0.0 1.0 -1 ------- null}
r -t 0.25912 -s 2 -d 3 -p tcp -e 1040 -c 2 -i 32 -a 2 -x {2.0 3.0 14 ------- null}
+ -t 0.25912 -s 3 -d 2 -p ack -e 40 -c 2 -i 65 -a 2 -x {3.0 2.0 14 ------- null}
- -t 0.25912 -s 3 -d 2 -p ack -e 40 -c 2 -i 65 -a 2 -x {3.0 2.0 14 ------- null}
h -t 0.25912 -s 3 -d 2 -p ack -e 40 -c 2 -i 65 -a 2 -x {3.0 2.0 -1 ------- null}
r -t 0.26112 -s 3 -d 2 -p ack -e 40 -c 2 -i 60 -a 2 -x {3.0 2.0 13 ------- null}
+ -t 0.26112 -s 2 -d 3 -p tcp -e 1040 -c 2 -i 66 -a 2 -x {2.0 3.0 27 ------- null}
+ -t 0.26112 -s 2 -d 3 -p tcp -e 1040 -c 2 -i 67 -a 2 -x {2.0 3.0 28 ------- null}
d -t 0.26112 -s 2 -d 3 -p tcp -e 1040 -c 2 -i 67 -a 2 -x {2.0 3.0 28 ------- null}
r -t 0.26144 -s 0 -d 1 -p tcp -e 1040 -c 1 -i 48 -a 1 -x {0.0 1.0 9 ------- null}
+ -t 0.26144 -s 1 -d 0 -p ack -e 40 -c 1 -i 68 -a 1 -x {1.0 0.0 9 ------- null}
- -t 0.26144 -s 1 -d 0 -p ack -e 40 -c 1 -i 68 -a 1 -x {1.0 0.0 9 ------- null}
h -t 0.26144 -s 1 -d 0 -p ack -e 40 -c 1 -i 68 -a 1 -x {1.0 0.0 -1 ------- null}
r -t 0.2656 -s 0 -d 1 -p tcp -e 1040 -c 1 -i 49 -a 1 -x {0.0 1.0 10 ------- null}
+ -t 0.2656 -s 1 -d 0 -p ack -e 40 -c 1 -i 69 -a 1 -x {1.0 0.0 10 ------- null}
- -t 0.2656 -s 1 -d 0 -p ack -e 40 -c 1 -i 69 -a 1 -x {1.0 0.0 10 ------- null}
h -t 0.2656 -s 1 -d 0 -p ack -e 40 -c 1 -i 69 -a 1 -x {1.0 0.0 -1 ------- null}
- -t 0.26576 -s 2 -d 3 -p tcp -e 1040 -c 2 -i 40 -a 2 -x {2.0 3.0 17 ------- null}
h -t 0.26576 -s 2 -d 3 -p tcp -e 1040 -c 2 -i 40 -a 2 -x {2.0 3.0 -1 ------- null}
r -t 0.26744 -s 2 -d 3 -p tcp -e 1040 -c 2 -i 35 -a 2 -x {2.0 3.0 15 ------- null}
+ -t 0.26744 -s 3 -d 2 -p ack -e 40 -c 2 -i 70 -a 2 -x {3.0 2.0 15 ------- null}
- -t 0.26744 -s 3 -d 2 -p ack -e 40 -c 2 -i 70 -a 2 -x {3.0 2.0 15 ------- null}
h -t 0.26744 -s 3 -d 2 -p ack -e 40 -c 2 -i 70 -a 2 -x {3.0 2.0 -1 ------- null}
r -t 0.26944 -s 3 -d 2 -p ack -e 40 -c 2 -i 65 -a 2 -x {3.0 2.0 14 ------- null}
+ -t 0.26944 -s 2 -d 3 -p tcp -e 1040 -c 2 -i 71 -a 2 -x {2.0 3.0 29 ------- null}
+ -t 0.26944 -s 2 -d 3 -p tcp -e 1040 -c 2 -i 72 -a 2 -x {2.0 3.0 30 ------- null}
d -t 0.26944 -s 2 -d 3 -p tcp -e 1040 -c 2 -i 72 -a 2 -x {2.0 3.0 30 ------- null}
r -t 0.26976 -s 0 -d 1 -p tcp -e 1040 -c 1 -i 53 -a 1 -x {0.0 1.0 11 ------- null}
+ -t 0.26976 -s 1 -d 0 -p ack -e 40 -c 1 -i 73 -a 1 -x {1.0 0.0 11 ------- null}
- -t 0.26976 -s 1 -d 0 -p ack -e 40 -c 1 -i 73 -a 1 -x {1.0 0.0 11 ------- null}
h -t 0.26976 -s 1 -d 0 -p ack -e 40 -c 1 -i 73 -a 1 -x {1.0 0.0 -1 ------- null}
r -t 0.27328 -s 1 -d 0 -p ack -e 40 -c 1 -i 63 -a 1 -x {1.0 0.0 7 ------- null}
+ -t 0.27328 -s 0 -d 1 -p tcp -e 1040 -c 1 -i 74 -a 1 -x {0.0 1.0 15 ------- null}
- -t 0.27328 -s 0 -d 1 -p tcp -e 1040 -c 1 -i 74 -a 1 -x {0.0 1.0 15 ------- null}
h -t 0.27328 -s 0 -d 1 -p tcp -e 1040 -c 1 -i 74 -a 1 -x {0.0 1.0 -1 ------- null}
+ -t 0.27328 -s 0 -d 1 -p tcp -e 1040 -c 1 -i 75 -a 1 -x {0.0 1.0 16 ------- null}
r -t 0.27392 -s 0 -d 1 -p tcp -e 1040 -c 1 -i 54 -a 1 -x {0.0 1.0 12 ------- null}
+ -t 0.27392 -s 1 -d 0 -p ack -e 40 -c 1 -i 76 -a 1 -x {1.0 0.0 12 ------- null}
- -t 0.27392 -s 1 -d 0 -p ack -e 40 -c 1 -i 76 -a 1 -x {1.0 0.0 12 ------- null}
h -t 0.27392 -s 1 -d 0 -p ack -e 40 -c 1 -i 76 -a 1 -x {1.0 0.0 -1 ------- null}
- -t 0.27408 -s 2 -d 3 -p tcp -e 1040 -c 2 -i 41 -a 2 -x {2.0 3.0 18 ------- null}
h -t 0.27408 -s 2 -d 3 -p tcp -e 1040 -c 2 -i 41 -a 2 -x {2.0 3.0 -1 ------- null}
r -t 0.27576 -s 2 -d 3 -p tcp -e 1040 -c 2 -i 36 -a 2 -x {2.0 3.0 16 ------- null}
+ -t 0.27576 -s 3 -d 2 -p ack -e 40 -c 2 -i 77 -a 2 -x {3.0 2.0 16 ------- null}
- -t 0.27576 -s 3 -d 2 -p ack -e 40 -c 2 -i 77 -a 2 -x {3.0 2.0 16 ------- null}
h -t 0.27576 -s 3 -d 2 -p ack -e 40 -c 2 -i 77 -a 2 -x {3.0 2.0 -1 ------- null}
r -t 0.27744 -s 1 -d 0 -p ack -e 40 -c 1 -i 64 -a 1 -x {1.0 0.0 8 ------- null}
+ -t 0.27744 -s 0 -d 1 -p tcp -e 1040 -c 1 -i 78 -a 1 -x {0.0 1.0 17 ------- null}
+ -t 0.27744 -s 0 -d 1 -p tcp -e 1040 -c 1 -i 79 -a 1 -x {0.0 1.0 18 ------- null}
- -t 0.27744 -s 0 -d 1 -p tcp -e 1040 -c 1 -i 75 -a 1 -x {0.0 1.0 16 ------- null}
h -t 0.27744 -s 0 -d 1 -p tcp -e 1040 -c 1 -i 75 -a 1 -x {0.0 1.0 -1 ------- null}
r -t 0.27776 -s 3 -d 2 -p ack -e 40 -c 2 -i 70 -a 2 -x {3.0 2.0 15 ------- null}
+ -t 0.27776 -s 2 -d 3 -p tcp -e 1040 -c 2 -i 80 -a 2 -x {2.0 3.0 31 ------- null}
+ -t 0.27776 -s 2 -d 3 -p tcp -e 1040 -c 2 -i 81 -a 2 -x {2.0 3.0 32 ------- null}
d -t 0.27776 -s 2 -d 3 -p tcp -e 1040 -c 2 -i 81 -a 2 -x {2.0 3.0 32 ------- null}
r -t 0.27808 -s 0 -d 1 -p tcp -e 1040 -c 1 -i 55 -a 1 -x {0.0 1.0 13 ------- null}
+ -t 0.27808 -s 1 -d 0 -p ack -e 40 -c 1 -i 82 -a 1 -x {1.0 0.0 13 ------- null}
- -t 0.27808 -s 1 -d 0 -p ack -e 40 -c 1 -i 82 -a 1 -x {1.0 0.0 13 ------- null}
h -t 0.27808 -s 1 -d 0 -p ack -e 40 -c 1 -i 82 -a 1 -x {1.0 0.0 -1 ------- null}
r -t 0.2816 -s 1 -d 0 -p ack -e 40 -c 1 -i 68 -a 1 -x {1.0 0.0 9 ------- null}
+ -t 0.2816 -s 0 -d 1 -p tcp -e 1040 -c 1 -i 83 -a 1 -x {0.0 1.0 19 ------- null}
+ -t 0.2816 -s 0 -d 1 -p tcp -e 1040 -c 1 -i 84 -a 1 -x {0.0 1.0 20 ------- null}
- -t 0.2816 -s 0 -d 1 -p tcp -e 1040 -c 1 -i 78 -a 1 -x {0.0 1.0 17 ------- null}
h -t 0.2816 -s 0 -d 1 -p tcp -e 1040 -c 1 -i 78 -a 1 -x {0.0 1.0 -1 ------- null}
r -t 0.28224 -s 0 -d 1 -p tcp -e 1040 -c 1 -i 56 -a 1 -x {0.0 1.0 14 ------- null}
+ -t 0.28224 -s 1 -d 0 -p ack -e 40 -c 1 -i 85 -a 1 -x {1.0 0.0 14 ------- null}
- -t 0.28224 -s 1 -d 0 -p ack -e 40 -c 1 -i 85 -a 1 -x {1.0 0.0 14 ------- null}
h -t 0.28224 -s 1 -d 0 -p ack -e 40 -c 1 -i 85 -a 1 -x {1.0 0.0 -1 ------- null}
- -t 0.2824 -s 2 -d 3 -p tcp -e 1040 -c 2 -i 44 -a 2 -x {2.0 3.0 19 ------- null}
h -t 0.2824 -s 2 -d 3 -p tcp -e 1040 -c 2 -i 44 -a 2 -x {2.0 3.0 -1 ------- null}
r -t 0.28408 -s 2 -d 3 -p tcp -e 1040 -c 2 -i 40 -a 2 -x {2.0 3.0 17 ------- null}
+ -t 0.28408 -s 3 -d 2 -p ack -e 40 -c 2 -i 86 -a 2 -x {3.0 2.0 17 ------- null}
- -t 0.28408 -s 3 -d 2 -p ack -e 40 -c 2 -i 86 -a 2 -x {3.0 2.0 17 ------- null}
h -t 0.28408 -s 3 -d 2 -p ack -e 40 -c 2 -i 86 -a 2 -x {3.0 2.0 -1 ------- null}
r -t 0.28576 -s 1 -d 0 -p ack -e 40 -c 1 -i 69 -a 1 -x {1.0 0.0 10 ------- null}
+ -t 0.28576 -s 0 -d 1 -p tcp -e 1040 -c 1 -i 87 -a 1 -x {0.0 1.0 21 ------- null}
+ -t 0.28576 -s 0 -d 1 -p tcp -e 1040 -c 1 -i 88 -a 1 -x {0.0 1.0 22 ------- null}
- -t 0.28576 -s 0 -d 1 -p tcp -e 1040 -c 1 -i 79 -a 1 -x {0.0 1.0 18 ------- null}
h -t 0.28576 -s 0 -d 1 -p tcp -e 1040 -c 1 -i 79 -a 1 -x {0.0 1.0 -1 ------- null}
r -t 0.28608 -s 3 -d 2 -p ack -e 40 -c 2 -i 77 -a 2 -x {3.0 2.0 16 ------- null}
+ -t 0.28608 -s 2 -d 3 -p tcp -e 1040 -c 2 -i 89 -a 2 -x {2.0 3.0 33 ------- null}
+ -t 0.28608 -s 2 -d 3 -p tcp -e 1040 -c 2 -i 90 -a 2 -x {2.0 3.0 34 ------- null}
d -t 0.28608 -s 2 -d 3 -p tcp -e 1040 -c 2 -i 90 -a 2 -x {2.0 3.0 34 ------- null}
r -t 0.28992 -s 1 -d 0 -p ack -e 40 -c 1 -i 73 -a 1 -x {1.0 0.0 11 ------- null}
+ -t 0.28992 -s 0 -d 1 -p tcp -e 1040 -c 1 -i 91 -a 1 -x {0.0 1.0 23 ------- null}
+ -t 0.28992 -s 0 -d 1 -p tcp -e 1040 -c 1 -i 92 -a 1 -x {0.0 1.0 24 ------- null}
- -t 0.28992 -s 0 -d 1 -p tcp -e 1040 -c 1 -i 83 -a 1 -x {0.0 1.0 19 ------- null}
h -t 0.28992 -s 0 -d 1 -p tcp -e 1040 -c 1 -i 83 -a 1 -x {0.0 1.0 -1 ------- null}
- -t 0.29072 -s 2 -d 3 -p tcp -e 1040 -c 2 -i 45 -a 2 -x {2.0 3.0 20 ------- null}
h -t 0.29072 -s 2 -d 3 -p tcp -e 1040 -c 2 -i 45 -a 2 -x {2.0 3.0 -1 ------- null}
r -t 0.2924 -s 2 -d 3 -p tcp -e 1040 -c 2 -i 41 -a 2 -x {2.0 3.0 18 ------- null}
+ -t 0.2924 -s 3 -d 2 -p ack -e 40 -c 2 -i 93 -a 2 -x {3.0 2.0 18 ------- null}
- -t 0.2924 -s 3 -d 2 -p ack -e 40 -c 2 -i 93 -a 2 -x {3.0 2.0 18 ------- null}
h -t 0.2924 -s 3 -d 2 -p ack -e 40 -c 2 -i 93 -a 2 -x {3.0 2.0 -1 ------- null}
r -t 0.29408 -s 1 -d 0 -p ack -e 40 -c 1 -i 76 -a 1 -x {1.0 0.0 12 ------- null}
+ -t 0.29408 -s 0 -d 1 -p tcp -e 1040 -c 1 -i 94 -a 1 -x {0.0 1.0 25 ------- null}
+ -t 0.29408 -s 0 -d 1 -p tcp -e 1040 -c 1 -i 95 -a 1 -x {0.0 1.0 26 ------- null}
- -t 0.29408 -s 0 -d 1 -p tcp -e 1040 -c 1 -i 84 -a 1 -x {0.0 1.0 20 ------- null}
h -t 0.29408 -s 0 -d 1 -p tcp -e 1040 -c 1 -i 84 -a 1 -x {0.0 1.0 -1 ------- null}
r -t 0.2944 -s 3 -d 2 -p ack -e 40 -c 2 -i 86 -a 2 -x {3.0 2.0 17 ------- null}
+ -t 0.2944 -s 2 -d 3 -p tcp -e 1040 -c 2 -i 96 -a 2 -x {2.0 3.0 35 ------- null}
+ -t 0.2944 -s 2 -d 3 -p tcp -e 1040 -c 2 -i 97 -a 2 -x {2.0 3.0 36 ------- null}
d -t 0.2944 -s 2 -d 3 -p tcp -e 1040 -c 2 -i 97 -a 2 -x {2.0 3.0 36 ------- null}
r -t 0.29744 -s 0 -d 1 -p tcp -e 1040 -c 1 -i 74 -a 1 -x {0.0 1.0 15 ------- null}
+ -t 0.29744 -s 1 -d 0 -p ack -e 40 -c 1 -i 98 -a 1 -x {1.0 0.0 15 ------- null}
- -t 0.29744 -s 1 -d 0 -p ack -e 40 -c 1 -i 98 -a 1 -x {1.0 0.0 15 ------- null}
h -t 0.29744 -s 1 -d 0 -p ack -e 40 -c 1 -i 98 -a 1 -x {1.0 0.0 -1 ------- null}
r -t 0.29824 -s 1 -d 0 -p ack -e 40 -c 1 -i 82 -a 1 -x {1.0 0.0 13 ------- null}
+ -t 0.29824 -s 0 -d 1 -p tcp -e 1040 -c 1 -i 99 -a 1 -x {0.0 1.0 27 ------- null}
+ -t 0.29824 -s 0 -d 1 -p tcp -e 1040 -c 1 -i 100 -a 1 -x {0.0 1.0 28 ------- null}
- -t 0.29824 -s 0 -d 1 -p tcp -e 1040 -c 1 -i 87 -a 1 -x {0.0 1.0 21 ------- null}
h -t 0.29824 -s 0 -d 1 -p tcp -e 1040 -c 1 -i 87 -a 1 -x {0.0 1.0 -1 ------- null}
- -t 0.29904 -s 2 -d 3 -p tcp -e 1040 -c 2 -i 51 -a 2 -x {2.0 3.0 21 ------- null}
h -t 0.29904 -s 2 -d 3 -p tcp -e 1040 -c 2 -i 51 -a 2 -x {2.0 3.0 -1 ------- null}
r -t 0.30072 -s 2 -d 3 -p tcp -e 1040 -c 2 -i 44 -a 2 -x {2.0 3.0 19 ------- null}
+ -t 0.30072 -s 3 -d 2 -p ack -e 40 -c 2 -i 101 -a 2 -x {3.0 2.0 19 ------- null}
- -t 0.30072 -s 3 -d 2 -p ack -e 40 -c 2 -i 101 -a 2 -x {3.0 2.0 19 ------- null}
h -t 0.30072 -s 3 -d 2 -p ack -e 40 -c 2 -i 101 -a 2 -x {3.0 2.0 -1 ------- null}
r -t 0.3016 -s 0 -d 1 -p tcp -e 1040 -c 1 -i 75 -a 1 -x {0.0 1.0 16 ------- null}
+ -t 0.3016 -s 1 -d 0 -p ack -e 40 -c 1 -i 102 -a 1 -x {1.0 0.0 16 ------- null}
- -t 0.3016 -s 1 -d 0 -p ack -e 40 -c 1 -i 102 -a 1 -x {1.0 0.0 16 ------- null}
h -t 0.3016 -s 1 -d 0 -p ack -e 40 -c 1 -i 102 -a 1 -x {1.0 0.0 -1 ------- null}
r -t 0.3024 -s 1 -d 0 -p ack -e 40 -c 1 -i 85 -a 1 -x {1.0 0.0 14 ------- null}
+ -t 0.3024 -s 0 -d 1 -p tcp -e 1040 -c 1 -i 103 -a 1 -x {0.0 1.0 29 ------- null}
+ -t 0.3024 -s 0 -d 1 -p tcp -e 1040 -c 1 -i 104 -a 1 -x {0.0 1.0 30 ------- null}
- -t 0.3024 -s 0 -d 1 -p tcp -e 1040 -c 1 -i 88 -a 1 -x {0.0 1.0 22 ------- null}
h -t 0.3024 -s 0 -d 1 -p tcp -e 1040 -c 1 -i 88 -a 1 -x {0.0 1.0 -1 ------- null}
r -t 0.30272 -s 3 -d 2 -p ack -e 40 -c 2 -i 93 -a 2 -x {3.0 2.0 18 ------- null}
+ -t 0.30272 -s 2 -d 3 -p tcp -e 1040 -c 2 -i 105 -a 2 -x {2.0 3.0 37 ------- null}
+ -t 0.30272 -s 2 -d 3 -p tcp -e 1040 -c 2 -i 106 -a 2 -x {2.0 3.0 38 ------- null}
d -t 0.30272 -s 2 -d 3 -p tcp -e 1040 -c 2 -i 106 -a 2 -x {2.0 3.0 38 ------- null}
r -t 0.30576 -s 0 -d 1 -p tcp -e 1040 -c 1 -i 78 -a 1 -x {0.0 1.0 17 ------- null}
+ -t 0.30576 -s 1 -d 0 -p ack -e 40 -c 1 -i 107 -a 1 -x {1.0 0.0 17 ------- null}
- -t 0.30576 -s 1 -d 0 -p ack -e 40 -c 1 -i 107 -a 1 -x {1.0 0.0 17 ------- null}
h -t 0.30576 -s 1 -d 0 -p ack -e 40 -c 1 -i 107 -a 1 -x {1.0 0.0 -1 ------- null}
- -t 0.30656 -s 0 -d 1 -p tcp -e 1040 -c 1 -i 91 -a 1 -x {0.0 1.0 23 ------- null}
h -t 0.30656 -s 0 -d 1 -p tcp -e 1040 -c 1 -i 91 -a 1 -x {0.0 1.0 -1 ------- null}
- -t 0.30736 -s 2 -d 3 -p tcp -e 1040 -c 2 -i 52 -a 2 -x {2.0 3.0 22 ------- null}
h -t 0.30736 -s 2 -d 3 -p tcp -e 1040 -c 2 -i 52 -a 2 -x {2.0 3.0 -1 ------- null}
r -t 0.30904 -s 2 -d 3 -p tcp -e 1040 -c 2 -i 45 -a 2 -x {2.0 3.0 20 ------- null}