+ 0.1 0 1 cbr 1000 ------- 0 0.0 2.0 0 0
- 0.1 0 1 cbr 1000 ------- 0 0.0 2.0 0 0
+ 0.108 0 1 cbr 1000 ------- 0 0.0 2.0 1 1
- 0.108 0 1 cbr 1000 ------- 0 0.0 2.0 1 1
+ 0.116 0 1 cbr 1000 ------- 0 0.0 2.0 2 2
- 0.116 0 1 cbr 1000 ------- 0 0.0 2.0 2 2
+ 0.124 0 1 cbr 1000 ------- 0 0.0 2.0 3 3
- 0.124 0 1 cbr 1000 ------- 0 0.0 2.0 3 3
+ 0.132 0 1 cbr 1000 ------- 0 0.0 2.0 4 4
- 0.132 0 1 cbr 1000 ------- 0 0.0 2.0 4 4
+ 0.14 0 1 cbr 1000 ------- 0 0.0 2.0 5 5
- 0.14 0 1 cbr 1000 ------- 0 0.0 2.0 5 5
+ 0.148 0 1 cbr 1000 ------- 0 0.0 2.0 6 6
- 0.148 0 1 cbr 1000 ------- 0 0.0 2.0 6 6
+ 0.156 0 1 cbr 1000 ------- 0 0.0 2.0 7 7
- 0.156 0 1 cbr 1000 ------- 0 0.0 2.0 7 7
r 0.158 0 1 cbr 1000 ------- 0 0.0 2.0 0 0
+ 0.158 1 2 cbr 1000 ------- 0 0.0 2.0 0 0
- 0.158 1 2 cbr 1000 ------- 0 0.0 2.0 0 0
+ 0.164 0 1 cbr 1000 ------- 0 0.0 2.0 8 8
- 0.164 0 1 cbr 1000 ------- 0 0.0 2.0 8 8
r 0.166 0 1 cbr 1000 ------- 0 0.0 2.0 1 1
+ 0.166 1 2 cbr 1000 ------- 0 0.0 2.0 1 1
+ 0.172 0 1 cbr 1000 ------- 0 0.0 2.0 9 9
- 0.172 0 1 cbr 1000 ------- 0 0.0 2.0 9 9
r 0.174 0 1 cbr 1000 ------- 0 0.0 2.0 2 2
+ 0.174 1 2 cbr 1000 ------- 0 0.0 2.0 2 2
+ 0.18 0 1 cbr 1000 ------- 0 0.0 2.0 10 10
- 0.18 0 1 cbr 1000 ------- 0 0.0 2.0 10 10
r 0.182 0 1 cbr 1000 ------- 0 0.0 2.0 3 3
+ 0.182 1 2 cbr 1000 ------- 0 0.0 2.0 3 3
+ 0.188 0 1 cbr 1000 ------- 0 0.0 2.0 11 11
- 0.188 0 1 cbr 1000 ------- 0 0.0 2.0 11 11
r 0.19 0 1 cbr 1000 ------- 0 0.0 2.0 4 4
+ 0.19 1 2 cbr 1000 ------- 0 0.0 2.0 4 4
+ 0.196 0 1 cbr 1000 ------- 0 0.0 2.0 12 12
- 0.196 0 1 cbr 1000 ------- 0 0.0 2.0 12 12
r 0.198 0 1 cbr 1000 ------- 0 0.0 2.0 5 5
+ 0.198 1 2 cbr 1000 ------- 0 0.0 2.0 5 5
+ 0.204 0 1 cbr 1000 ------- 0 0.0 2.0 13 13
- 0.204 0 1 cbr 1000 ------- 0 0.0 2.0 13 13
r 0.206 0 1 cbr 1000 ------- 0 0.0 2.0 6 6
+ 0.206 1 2 cbr 1000 ------- 0 0.0 2.0 6 6
+ 0.212 0 1 cbr 1000 ------- 0 0.0 2.0 14 14
- 0.212 0 1 cbr 1000 ------- 0 0.0 2.0 14 14
r 0.214 0 1 cbr 1000 ------- 0 0.0 2.0 7 7
+ 0.214 1 2 cbr 1000 ------- 0 0.0 2.0 7 7
+ 0.22 0 1 cbr 1000 ------- 0 0.0 2.0 15 15
- 0.22 0 1 cbr 1000 ------- 0 0.0 2.0 15 15
r 0.222 0 1 cbr 1000 ------- 0 0.0 2.0 8 8
+ 0.222 1 2 cbr 1000 ------- 0 0.0 2.0 8 8
+ 0.228 0 1 cbr 1000 ------- 0 0.0 2.0 16 16
- 0.228 0 1 cbr 1000 ------- 0 0.0 2.0 16 16
r 0.23 0 1 cbr 1000 ------- 0 0.0 2.0 9 9
+ 0.23 1 2 cbr 1000 ------- 0 0.0 2.0 9 9
+ 0.236 0 1 cbr 1000 ------- 0 0.0 2.0 17 17
- 0.236 0 1 cbr 1000 ------- 0 0.0 2.0 17 17
- 0.238 1 2 cbr 1000 ------- 0 0.0 2.0 1 1
r 0.238 0 1 cbr 1000 ------- 0 0.0 2.0 10 10
+ 0.238 1 2 cbr 1000 ------- 0 0.0 2.0 10 10
r 0.243 1 2 cbr 1000 ------- 0 0.0 2.0 0 0
+ 0.244 0 1 cbr 1000 ------- 0 0.0 2.0 18 18
- 0.244 0 1 cbr 1000 ------- 0 0.0 2.0 18 18
r 0.246 0 1 cbr 1000 ------- 0 0.0 2.0 11 11
+ 0.246 1 2 cbr 1000 ------- 0 0.0 2.0 11 11
+ 0.252 0 1 cbr 1000 ------- 0 0.0 2.0 19 19
- 0.252 0 1 cbr 1000 ------- 0 0.0 2.0 19 19
r 0.254 0 1 cbr 1000 ------- 0 0.0 2.0 12 12
+ 0.254 1 2 cbr 1000 ------- 0 0.0 2.0 12 12
+ 0.26 0 1 cbr 1000 ------- 0 0.0 2.0 20 20
- 0.26 0 1 cbr 1000 ------- 0 0.0 2.0 20 20
r 0.262 0 1 cbr 1000 ------- 0 0.0 2.0 13 13
+ 0.262 1 2 cbr 1000 ------- 0 0.0 2.0 13 13
+ 0.268 0 1 cbr 1000 ------- 0 0.0 2.0 21 21
- 0.268 0 1 cbr 1000 ------- 0 0.0 2.0 21 21
r 0.27 0 1 cbr 1000 ------- 0 0.0 2.0 14 14
+ 0.27 1 2 cbr 1000 ------- 0 0.0 2.0 14 14
+ 0.276 0 1 cbr 1000 ------- 0 0.0 2.0 22 22
- 0.276 0 1 cbr 1000 ------- 0 0.0 2.0 22 22
r 0.278 0 1 cbr 1000 ------- 0 0.0 2.0 15 15
+ 0.278 1 2 cbr 1000 ------- 0 0.0 2.0 15 15
d 0.278 1 2 cbr 1000 ------- 0 0.0 2.0 15 15
+ 0.284 0 1 cbr 1000 ------- 0 0.0 2.0 23 23
- 0.284 0 1 cbr 1000 ------- 0 0.0 2.0 23 23
r 0.286 0 1 cbr 1000 ------- 0 0.0 2.0 16 16
+ 0.286 1 2 cbr 1000 ------- 0 0.0 2.0 16 16
d 0.286 1 2 cbr 1000 ------- 0 0.0 2.0 16 16
+ 0.292 0 1 cbr 1000 ------- 0 0.0 2.0 24 24
- 0.292 0 1 cbr 1000 ------- 0 0.0 2.0 24 24
r 0.294 0 1 cbr 1000 ------- 0 0.0 2.0 17 17
+ 0.294 1 2 cbr 1000 ------- 0 0.0 2.0 17 17
d 0.294 1 2 cbr 1000 ------- 0 0.0 2.0 17 17
+ 0.3 0 1 cbr 1000 ------- 0 0.0 2.0 25 25
- 0.3 0 1 cbr 1000 ------- 0 0.0 2.0 25 25
r 0.302 0 1 cbr 1000 ------- 0 0.0 2.0 18 18
+ 0.302 1 2 cbr 1000 ------- 0 0.0 2.0 18 18
d 0.302 1 2 cbr 1000 ------- 0 0.0 2.0 18 18
+ 0.308 0 1 cbr 1000 ------- 0 0.0 2.0 26 26
- 0.308 0 1 cbr 1000 ------- 0 0.0 2.0 26 26
r 0.31 0 1 cbr 1000 ------- 0 0.0 2.0 19 19
+ 0.31 1 2 cbr 1000 ------- 0 0.0 2.0 19 19
d 0.31 1 2 cbr 1000 ------- 0 0.0 2.0 19 19
+ 0.316 0 1 cbr 1000 ------- 0 0.0 2.0 27 27
- 0.316 0 1 cbr 1000 ------- 0 0.0 2.0 27 27
- 0.318 1 2 cbr 1000 ------- 0 0.0 2.0 2 2
r 0.318 0 1 cbr 1000 ------- 0 0.0 2.0 20 20
+ 0.318 1 2 cbr 1000 ------- 0 0.0 2.0 20 20
r 0.323 1 2 cbr 1000 ------- 0 0.0 2.0 1 1
+ 0.324 0 1 cbr 1000 ------- 0 0.0 2.0 28 28
- 0.324 0 1 cbr 1000 ------- 0 0.0 2.0 28 28
r 0.326 0 1 cbr 1000 ------- 0 0.0 2.0 21 21
+ 0.326 1 2 cbr 1000 ------- 0 0.0 2.0 21 21
d 0.326 1 2 cbr 1000 ------- 0 0.0 2.0 21 21
+ 0.332 0 1 cbr 1000 ------- 0 0.0 2.0 29 29
- 0.332 0 1 cbr 1000 ------- 0 0.0 2.0 29 29
r 0.334 0 1 cbr 1000 ------- 0 0.0 2.0 22 22
+ 0.334 1 2 cbr 1000 ------- 0 0.0 2.0 22 22
d 0.334 1 2 cbr 1000 ------- 0 0.0 2.0 22 22
+ 0.34 0 1 cbr 1000 ------- 0 0.0 2.0 30 30
- 0.34 0 1 cbr 1000 ------- 0 0.0 2.0 30 30
r 0.342 0 1 cbr 1000 ------- 0 0.0 2.0 23 23
+ 0.342 1 2 cbr 1000 ------- 0 0.0 2.0 23 23
d 0.342 1 2 cbr 1000 ------- 0 0.0 2.0 23 23
+ 0.348 0 1 cbr 1000 ------- 0 0.0 2.0 31 31
- 0.348 0 1 cbr 1000 ------- 0 0.0 2.0 31 31
r 0.35 0 1 cbr 1000 ------- 0 0.0 2.0 24 24
+ 0.35 1 2 cbr 1000 ------- 0 0.0 2.0 24 24
d 0.35 1 2 cbr 1000 ------- 0 0.0 2.0 24 24
+ 0.356 0 1 cbr 1000 ------- 0 0.0 2.0 32 32
- 0.356 0 1 cbr 1000 ------- 0 0.0 2.0 32 32
r 0.358 0 1 cbr 1000 ------- 0 0.0 2.0 25 25
+ 0.358 1 2 cbr 1000 ------- 0 0.0 2.0 25 25
d 0.358 1 2 cbr 1000 ------- 0 0.0 2.0 25 25
+ 0.364 0 1 cbr 1000 ------- 0 0.0 2.0 33 33
- 0.364 0 1 cbr 1000 ------- 0 0.0 2.0 33 33
r 0.366 0 1 cbr 1000 ------- 0 0.0 2.0 26 26
+ 0.366 1 2 cbr 1000 ------- 0 0.0 2.0 26 26
d 0.366 1 2 cbr 1000 ------- 0 0.0 2.0 26 26
+ 0.372 0 1 cbr 1000 ------- 0 0.0 2.0 34 34
- 0.372 0 1 cbr 1000 ------- 0 0.0 2.0 34 34
r 0.374 0 1 cbr 1000 ------- 0 0.0 2.0 27 27
+ 0.374 1 2 cbr 1000 ------- 0 0.0 2.0 27 27
d 0.374 1 2 cbr 1000 ------- 0 0.0 2.0 27 27
+ 0.38 0 1 cbr 1000 ------- 0 0.0 2.0 35 35
- 0.38 0 1 cbr 1000 ------- 0 0.0 2.0 35 35
r 0.382 0 1 cbr 1000 ------- 0 0.0 2.0 28 28
+ 0.382 1 2 cbr 1000 ------- 0 0.0 2.0 28 28
d 0.382 1 2 cbr 1000 ------- 0 0.0 2.0 28 28
+ 0.388 0 1 cbr 1000 ------- 0 0.0 2.0 36 36
- 0.388 0 1 cbr 1000 ------- 0 0.0 2.0 36 36
r 0.39 0 1 cbr 1000 ------- 0 0.0 2.0 29 29
+ 0.39 1 2 cbr 1000 ------- 0 0.0 2.0 29 29
d 0.39 1 2 cbr 1000 ------- 0 0.0 2.0 29 29
+ 0.396 0 1 cbr 1000 ------- 0 0.0 2.0 37 37
- 0.396 0 1 cbr 1000 ------- 0 0.0 2.0 37 37
- 0.398 1 2 cbr 1000 ------- 0 0.0 2.0 3 3
r 0.398 0 1 cbr 1000 ------- 0 0.0 2.0 30 30
+ 0.398 1 2 cbr 1000 ------- 0 0.0 2.0 30 30
r 0.403 1 2 cbr 1000 ------- 0 0.0 2.0 2 2
+ 0.404 0 1 cbr 1000 ------- 0 0.0 2.0 38 38
- 0.404 0 1 cbr 1000 ------- 0 0.0 2.0 38 38
r 0.406 0 1 cbr 1000 ------- 0 0.0 2.0 31 31
+ 0.406 1 2 cbr 1000 ------- 0 0.0 2.0 31 31
d 0.406 1 2 cbr 1000 ------- 0 0.0 2.0 31 31
+ 0.412 0 1 cbr 1000 ------- 0 0.0 2.0 39 39
- 0.412 0 1 cbr 1000 ------- 0 0.0 2.0 39 39
r 0.414 0 1 cbr 1000 ------- 0 0.0 2.0 32 32
+ 0.414 1 2 cbr 1000 ------- 0 0.0 2.0 32 32
d 0.414 1 2 cbr 1000 ------- 0 0.0 2.0 32 32
+ 0.42 0 1 cbr 1000 ------- 0 0.0 2.0 40 40
- 0.42 0 1 cbr 1000 ------- 0 0.0 2.0 40 40
r 0.422 0 1 cbr 1000 ------- 0 0.0 2.0 33 33
+ 0.422 1 2 cbr 1000 ------- 0 0.0 2.0 33 33
d 0.422 1 2 cbr 1000 ------- 0 0.0 2.0 33 33
+ 0.428 0 1 cbr 1000 ------- 0 0.0 2.0 41 41
- 0.428 0 1 cbr 1000 ------- 0 0.0 2.0 41 41
r 0.43 0 1 cbr 1000 ------- 0 0.0 2.0 34 34
+ 0.43 1 2 cbr 1000 ------- 0 0.0 2.0 34 34
d 0.43 1 2 cbr 1000 ------- 0 0.0 2.0 34 34
+ 0.436 0 1 cbr 1000 ------- 0 0.0 2.0 42 42
- 0.436 0 1 cbr 1000 ------- 0 0.0 2.0 42 42
r 0.438 0 1 cbr 1000 ------- 0 0.0 2.0 35 35
+ 0.438 1 2 cbr 1000 ------- 0 0.0 2.0 35 35
d 0.438 1 2 cbr 1000 ------- 0 0.0 2.0 35 35
+ 0.444 0 1 cbr 1000 ------- 0 0.0 2.0 43 43
- 0.444 0 1 cbr 1000 ------- 0 0.0 2.0 43 43
r 0.446 0 1 cbr 1000 ------- 0 0.0 2.0 36 36
+ 0.446 1 2 cbr 1000 ------- 0 0.0 2.0 36 36
d 0.446 1 2 cbr 1000 ------- 0 0.0 2.0 36 36
+ 0.452 0 1 cbr 1000 ------- 0 0.0 2.0 44 44
- 0.452 0 1 cbr 1000 ------- 0 0.0 2.0 44 44
r 0.454 0 1 cbr 1000 ------- 0 0.0 2.0 37 37
+ 0.454 1 2 cbr 1000 ------- 0 0.0 2.0 37 37
d 0.454 1 2 cbr 1000 ------- 0 0.0 2.0 37 37
+ 0.46 0 1 cbr 1000 ------- 0 0.0 2.0 45 45
- 0.46 0 1 cbr 1000 ------- 0 0.0 2.0 45 45
r 0.462 0 1 cbr 1000 ------- 0 0.0 2.0 38 38
+ 0.462 1 2 cbr 1000 ------- 0 0.0 2.0 38 38
d 0.462 1 2 cbr 1000 ------- 0 0.0 2.0 38 38
+ 0.468 0 1 cbr 1000 ------- 0 0.0 2.0 46 46
- 0.468 0 1 cbr 1000 ------- 0 0.0 2.0 46 46
r 0.47 0 1 cbr 1000 ------- 0 0.0 2.0 39 39
+ 0.47 1 2 cbr 1000 ------- 0 0.0 2.0 39 39
d 0.47 1 2 cbr 1000 ------- 0 0.0 2.0 39 39
+ 0.476 0 1 cbr 1000 ------- 0 0.0 2.0 47 47
- 0.476 0 1 cbr 1000 ------- 0 0.0 2.0 47 47
- 0.478 1 2 cbr 1000 ------- 0 0.0 2.0 4 4
r 0.478 0 1 cbr 1000 ------- 0 0.0 2.0 40 40
+ 0.478 1 2 cbr 1000 ------- 0 0.0 2.0 40 40
r 0.483 1 2 cbr 1000 ------- 0 0.0 2.0 3 3
+ 0.484 0 1 cbr 1000 ------- 0 0.0 2.0 48 48
- 0.484 0 1 cbr 1000 ------- 0 0.0 2.0 48 48
r 0.486 0 1 cbr 1000 ------- 0 0.0 2.0 41 41
+ 0.486 1 2 cbr 1000 ------- 0 0.0 2.0 41 41
d 0.486 1 2 cbr 1000 ------- 0 0.0 2.0 41 41
+ 0.492 0 1 cbr 1000 ------- 0 0.0 2.0 49 49
- 0.492 0 1 cbr 1000 ------- 0 0.0 2.0 49 49
r 0.494 0 1 cbr 1000 ------- 0 0.0 2.0 42 42
+ 0.494 1 2 cbr 1000 ------- 0 0.0 2.0 42 42
d 0.494 1 2 cbr 1000 ------- 0 0.0 2.0 42 42
+ 0.5 0 1 cbr 1000 ------- 0 0.0 2.0 50 50
- 0.5 0 1 cbr 1000 ------- 0 0.0 2.0 50 50
r 0.502 0 1 cbr 1000 ------- 0 0.0 2.0 43 43
+ 0.502 1 2 cbr 1000 ------- 0 0.0 2.0 43 43
d 0.502 1 2 cbr 1000 ------- 0 0.0 2.0 43 43
+ 0.508 0 1 cbr 1000 ------- 0 0.0 2.0 51 51
- 0.508 0 1 cbr 1000 ------- 0 0.0 2.0 51 51
r 0.51 0 1 cbr 1000 ------- 0 0.0 2.0 44 44
+ 0.51 1 2 cbr 1000 ------- 0 0.0 2.0 44 44
d 0.51 1 2 cbr 1000 ------- 0 0.0 2.0 44 44
+ 0.516 0 1 cbr 1000 ------- 0 0.0 2.0 52 52
- 0.516 0 1 cbr 1000 ------- 0 0.0 2.0 52 52
r 0.518 0 1 cbr 1000 ------- 0 0.0 2.0 45 45
+ 0.518 1 2 cbr 1000 ------- 0 0.0 2.0 45 45
d 0.518 1 2 cbr 1000 ------- 0 0.0 2.0 45 45
+ 0.524 0 1 cbr 1000 ------- 0 0.0 2.0 53 53
- 0.524 0 1 cbr 1000 ------- 0 0.0 2.0 53 53
r 0.526 0 1 cbr 1000 ------- 0 0.0 2.0 46 46
+ 0.526 1 2 cbr 1000 ------- 0 0.0 2.0 46 46
d 0.526 1 2 cbr 1000 ------- 0 0.0 2.0 46 46
+ 0.532 0 1 cbr 1000 ------- 0 0.0 2.0 54 54
- 0.532 0 1 cbr 1000 ------- 0 0.0 2.0 54 54
r 0.534 0 1 cbr 1000 ------- 0 0.0 2.0 47 47
+ 0.534 1 2 cbr 1000 ------- 0 0.0 2.0 47 47
d 0.534 1 2 cbr 1000 ------- 0 0.0 2.0 47 47
+ 0.54 0 1 cbr 1000 ------- 0 0.0 2.0 55 55
- 0.54 0 1 cbr 1000 ------- 0 0.0 2.0 55 55
r 0.542 0 1 cbr 1000 ------- 0 0.0 2.0 48 48
+ 0.542 1 2 cbr 1000 ------- 0 0.0 2.0 48 48
d 0.542 1 2 cbr 1000 ------- 0 0.0 2.0 48 48
+ 0.548 0 1 cbr 1000 ------- 0 0.0 2.0 56 56
- 0.548 0 1 cbr 1000 ------- 0 0.0 2.0 56 56
r 0.55 0 1 cbr 1000 ------- 0 0.0 2.0 49 49
+ 0.55 1 2 cbr 1000 ------- 0 0.0 2.0 49 49
d 0.55 1 2 cbr 1000 ------- 0 0.0 2.0 49 49
+ 0.556 0 1 cbr 1000 ------- 0 0.0 2.0 57 57
- 0.556 0 1 cbr 1000 ------- 0 0.0 2.0 57 57
- 0.558 1 2 cbr 1000 ------- 0 0.0 2.0 5 5
r 0.558 0 1 cbr 1000 ------- 0 0.0 2.0 50 50
+ 0.558 1 2 cbr 1000 ------- 0 0.0 2.0 50 50
r 0.563 1 2 cbr 1000 ------- 0 0.0 2.0 4 4
+ 0.564 0 1 cbr 1000 ------- 0 0.0 2.0 58 58
- 0.564 0 1 cbr 1000 ------- 0 0.0 2.0 58 58
r 0.566 0 1 cbr 1000 ------- 0 0.0 2.0 51 51
+ 0.566 1 2 cbr 1000 ------- 0 0.0 2.0 51 51
d 0.566 1 2 cbr 1000 ------- 0 0.0 2.0 51 51
+ 0.572 0 1 cbr 1000 ------- 0 0.0 2.0 59 59
- 0.572 0 1 cbr 1000 ------- 0 0.0 2.0 59 59
r 0.574 0 1 cbr 1000 ------- 0 0.0 2.0 52 52
+ 0.574 1 2 cbr 1000 ------- 0 0.0 2.0 52 52
d 0.574 1 2 cbr 1000 ------- 0 0.0 2.0 52 52
+ 0.58 0 1 cbr 1000 ------- 0 0.0 2.0 60 60
- 0.58 0 1 cbr 1000 ------- 0 0.0 2.0 60 60
r 0.582 0 1 cbr 1000 ------- 0 0.0 2.0 53 53
+ 0.582 1 2 cbr 1000 ------- 0 0.0 2.0 53 53
d 0.582 1 2 cbr 1000 ------- 0 0.0 2.0 53 53
+ 0.588 0 1 cbr 1000 ------- 0 0.0 2.0 61 61
- 0.588 0 1 cbr 1000 ------- 0 0.0 2.0 61 61
r 0.59 0 1 cbr 1000 ------- 0 0.0 2.0 54 54
+ 0.59 1 2 cbr 1000 ------- 0 0.0 2.0 54 54
d 0.59 1 2 cbr 1000 ------- 0 0.0 2.0 54 54
+ 0.596 0 1 cbr 1000 ------- 0 0.0 2.0 62 62
- 0.596 0 1 cbr 1000 ------- 0 0.0 2.0 62 62
r 0.598 0 1 cbr 1000 ------- 0 0.0 2.0 55 55
+ 0.598 1 2 cbr 1000 ------- 0 0.0 2.0 55 55
d 0.598 1 2 cbr 1000 ------- 0 0.0 2.0 55 55
+ 0.604 0 1 cbr 1000 ------- 0 0.0 2.0 63 63
- 0.604 0 1 cbr 1000 ------- 0 0.0 2.0 63 63
r 0.606 0 1 cbr 1000 ------- 0 0.0 2.0 56 56
+ 0.606 1 2 cbr 1000 ------- 0 0.0 2.0 56 56
d 0.606 1 2 cbr 1000 ------- 0 0.0 2.0 56 56
+ 0.612 0 1 cbr 1000 ------- 0 0.0 2.0 64 64
- 0.612 0 1 cbr 1000 ------- 0 0.0 2.0 64 64
r 0.614 0 1 cbr 1000 ------- 0 0.0 2.0 57 57
+ 0.614 1 2 cbr 1000 ------- 0 0.0 2.0 57 57
d 0.614 1 2 cbr 1000 ------- 0 0.0 2.0 57 57
+ 0.62 0 1 cbr 1000 ------- 0 0.0 2.0 65 65
- 0.62 0 1 cbr 1000 ------- 0 0.0 2.0 65 65
r 0.622 0 1 cbr 1000 ------- 0 0.0 2.0 58 58
+ 0.622 1 2 cbr 1000 ------- 0 0.0 2.0 58 58
d 0.622 1 2 cbr 1000 ------- 0 0.0 2.0 58 58
+ 0.628 0 1 cbr 1000 ------- 0 0.0 2.0 66 66
- 0.628 0 1 cbr 1000 ------- 0 0.0 2.0 66 66
r 0.63 0 1 cbr 1000 ------- 0 0.0 2.0 59 59
+ 0.63 1 2 cbr 1000 ------- 0 0.0 2.0 59 59
d 0.63 1 2 cbr 1000 ------- 0 0.0 2.0 59 59
+ 0.636 0 1 cbr 1000 ------- 0 0.0 2.0 67 67
- 0.636 0 1 cbr 1000 ------- 0 0.0 2.0 67 67
- 0.638 1 2 cbr 1000 ------- 0 0.0 2.0 6 6
r 0.638 0 1 cbr 1000 ------- 0 0.0 2.0 60 60
+ 0.638 1 2 cbr 1000 ------- 0 0.0 2.0 60 60
r 0.643 1 2 cbr 1000 ------- 0 0.0 2.0 5 5
+ 0.644 0 1 cbr 1000 ------- 0 0.0 2.0 68 68
- 0.644 0 1 cbr 1000 ------- 0 0.0 2.0 68 68
r 0.646 0 1 cbr 1000 ------- 0 0.0 2.0 61 61
+ 0.646 1 2 cbr 1000 ------- 0 0.0 2.0 61 61
d 0.646 1 2 cbr 1000 ------- 0 0.0 2.0 61 61
+ 0.652 0 1 cbr 1000 ------- 0 0.0 2.0 69 69
- 0.652 0 1 cbr 1000 ------- 0 0.0 2.0 69 69
r 0.654 0 1 cbr 1000 ------- 0 0.0 2.0 62 62
+ 0.654 1 2 cbr 1000 ------- 0 0.0 2.0 62 62
d 0.654 1 2 cbr 1000 ------- 0 0.0 2.0 62 62
+ 0.66 0 1 cbr 1000 ------- 0 0.0 2.0 70 70
- 0.66 0 1 cbr 1000 ------- 0 0.0 2.0 70 70
r 0.662 0 1 cbr 1000 ------- 0 0.0 2.0 63 63
+ 0.662 1 2 cbr 1000 ------- 0 0.0 2.0 63 63
d 0.662 1 2 cbr 1000 ------- 0 0.0 2.0 63 63
+ 0.668 0 1 cbr 1000 ------- 0 0.0 2.0 71 71
- 0.668 0 1 cbr 1000 ------- 0 0.0 2.0 71 71
r 0.67 0 1 cbr 1000 ------- 0 0.0 2.0 64 64
+ 0.67 1 2 cbr 1000 ------- 0 0.0 2.0 64 64
d 0.67 1 2 cbr 1000 ------- 0 0.0 2.0 64 64
+ 0.676 0 1 cbr 1000 ------- 0 0.0 2.0 72 72
- 0.676 0 1 cbr 1000 ------- 0 0.0 2.0 72 72
r 0.678 0 1 cbr 1000 ------- 0 0.0 2.0 65 65
+ 0.678 1 2 cbr 1000 ------- 0 0.0 2.0 65 65
d 0.678 1 2 cbr 1000 ------- 0 0.0 2.0 65 65
+ 0.684 0 1 cbr 1000 ------- 0 0.0 2.0 73 73
- 0.684 0 1 cbr 1000 ------- 0 0.0 2.0 73 73
r 0.686 0 1 cbr 1000 ------- 0 0.0 2.0 66 66
+ 0.686 1 2 cbr 1000 ------- 0 0.0 2.0 66 66
d 0.686 1 2 cbr 1000 ------- 0 0.0 2.0 66 66
+ 0.692 0 1 cbr 1000 ------- 0 0.0 2.0 74 74
- 0.692 0 1 cbr 1000 ------- 0 0.0 2.0 74 74
r 0.694 0 1 cbr 1000 ------- 0 0.0 2.0 67 67
+ 0.694 1 2 cbr 1000 ------- 0 0.0 2.0 67 67
d 0.694 1 2 cbr 1000 ------- 0 0.0 2.0 67 67
+ 0.7 0 1 cbr 1000 ------- 0 0.0 2.0 75 75
- 0.7 0 1 cbr 1000 ------- 0 0.0 2.0 75 75
r 0.702 0 1 cbr 1000 ------- 0 0.0 2.0 68 68
+ 0.702 1 2 cbr 1000 ------- 0 0.0 2.0 68 68
d 0.702 1 2 cbr 1000 ------- 0 0.0 2.0 68 68
+ 0.708 0 1 cbr 1000 ------- 0 0.0 2.0 76 76
- 0.708 0 1 cbr 1000 ------- 0 0.0 2.0 76 76
r 0.71 0 1 cbr 1000 ------- 0 0.0 2.0 69 69
+ 0.71 1 2 cbr 1000 ------- 0 0.0 2.0 69 69
d 0.71 1 2 cbr 1000 ------- 0 0.0 2.0 69 69
+ 0.716 0 1 cbr 1000 ------- 0 0.0 2.0 77 77
- 0.716 0 1 cbr 1000 ------- 0 0.0 2.0 77 77
- 0.718 1 2 cbr 1000 ------- 0 0.0 2.0 7 7
r 0.718 0 1 cbr 1000 ------- 0 0.0 2.0 70 70
+ 0.718 1 2 cbr 1000 ------- 0 0.0 2.0 70 70
r 0.723 1 2 cbr 1000 ------- 0 0.0 2.0 6 6
+ 0.724 0 1 cbr 1000 ------- 0 0.0 2.0 78 78
- 0.724 0 1 cbr 1000 ------- 0 0.0 2.0 78 78
r 0.726 0 1 cbr 1000 ------- 0 0.0 2.0 71 71
+ 0.726 1 2 cbr 1000 ------- 0 0.0 2.0 71 71
d 0.726 1 2 cbr 1000 ------- 0 0.0 2.0 71 71
+ 0.732 0 1 cbr 1000 ------- 0 0.0 2.0 79 79
- 0.732 0 1 cbr 1000 ------- 0 0.0 2.0 79 79
r 0.734 0 1 cbr 1000 ------- 0 0.0 2.0 72 72
+ 0.734 1 2 cbr 1000 ------- 0 0.0 2.0 72 72
d 0.734 1 2 cbr 1000 ------- 0 0.0 2.0 72 72
+ 0.74 0 1 cbr 1000 ------- 0 0.0 2.0 80 80
- 0.74 0 1 cbr 1000 ------- 0 0.0 2.0 80 80
r 0.742 0 1 cbr 1000 ------- 0 0.0 2.0 73 73
+ 0.742 1 2 cbr 1000 ------- 0 0.0 2.0 73 73
d 0.742 1 2 cbr 1000 ------- 0 0.0 2.0 73 73
+ 0.748 0 1 cbr 1000 ------- 0 0.0 2.0 81 81
- 0.748 0 1 cbr 1000 ------- 0 0.0 2.0 81 81
r 0.75 0 1 cbr 1000 ------- 0 0.0 2.0 74 74
+ 0.75 1 2 cbr 1000 ------- 0 0.0 2.0 74 74
d 0.75 1 2 cbr 1000 ------- 0 0.0 2.0 74 74
+ 0.756 0 1 cbr 1000 ------- 0 0.0 2.0 82 82
- 0.756 0 1 cbr 1000 ------- 0 0.0 2.0 82 82
r 0.758 0 1 cbr 1000 ------- 0 0.0 2.0 75 75
+ 0.758 1 2 cbr 1000 ------- 0 0.0 2.0 75 75
d 0.758 1 2 cbr 1000 ------- 0 0.0 2.0 75 75
+ 0.764 0 1 cbr 1000 ------- 0 0.0 2.0 83 83
- 0.764 0 1 cbr 1000 ------- 0 0.0 2.0 83 83
r 0.766 0 1 cbr 1000 ------- 0 0.0 2.0 76 76
+ 0.766 1 2 cbr 1000 ------- 0 0.0 2.0 76 76
d 0.766 1 2 cbr 1000 ------- 0 0.0 2.0 76 76
+ 0.772 0 1 cbr 1000 ------- 0 0.0 2.0 84 84
- 0.772 0 1 cbr 1000 ------- 0 0.0 2.0 84 84
r 0.774 0 1 cbr 1000 ------- 0 0.0 2.0 77 77
+ 0.774 1 2 cbr 1000 ------- 0 0.0 2.0 77 77
d 0.774 1 2 cbr 1000 ------- 0 0.0 2.0 77 77
+ 0.78 0 1 cbr 1000 ------- 0 0.0 2.0 85 85
- 0.78 0 1 cbr 1000 ------- 0 0.0 2.0 85 85
r 0.782 0 1 cbr 1000 ------- 0 0.0 2.0 78 78
+ 0.782 1 2 cbr 1000 ------- 0 0.0 2.0 78 78
d 0.782 1 2 cbr 1000 ------- 0 0.0 2.0 78 78
+ 0.788 0 1 cbr 1000 ------- 0 0.0 2.0 86 86
- 0.788 0 1 cbr 1000 ------- 0 0.0 2.0 86 86
r 0.79 0 1 cbr 1000 ------- 0 0.0 2.0 79 79
+ 0.79 1 2 cbr 1000 ------- 0 0.0 2.0 79 79
d 0.79 1 2 cbr 1000 ------- 0 0.0 2.0 79 79
+ 0.796 0 1 cbr 1000 ------- 0 0.0 2.0 87 87
- 0.796 0 1 cbr 1000 ------- 0 0.0 2.0 87 87
- 0.798 1 2 cbr 1000 ------- 0 0.0 2.0 8 8
r 0.798 0 1 cbr 1000 ------- 0 0.0 2.0 80 80
+ 0.798 1 2 cbr 1000 ------- 0 0.0 2.0 80 80
r 0.803 1 2 cbr 1000 ------- 0 0.0 2.0 7 7
+ 0.804 0 1 cbr 1000 ------- 0 0.0 2.0 88 88
- 0.804 0 1 cbr 1000 ------- 0 0.0 2.0 88 88
r 0.806 0 1 cbr 1000 ------- 0 0.0 2.0 81 81
+ 0.806 1 2 cbr 1000 ------- 0 0.0 2.0 81 81
d 0.806 1 2 cbr 1000 ------- 0 0.0 2.0 81 81
+ 0.812 0 1 cbr 1000 ------- 0 0.0 2.0 89 89
- 0.812 0 1 cbr 1000 ------- 0 0.0 2.0 89 89
r 0.814 0 1 cbr 1000 ------- 0 0.0 2.0 82 82
+ 0.814 1 2 cbr 1000 ------- 0 0.0 2.0 82 82
d 0.814 1 2 cbr 1000 ------- 0 0.0 2.0 82 82
+ 0.82 0 1 cbr 1000 ------- 0 0.0 2.0 90 90
- 0.82 0 1 cbr 1000 ------- 0 0.0 2.0 90 90
r 0.822 0 1 cbr 1000 ------- 0 0.0 2.0 83 83
+ 0.822 1 2 cbr 1000 ------- 0 0.0 2.0 83 83
d 0.822 1 2 cbr 1000 ------- 0 0.0 2.0 83 83
+ 0.828 0 1 cbr 1000 ------- 0 0.0 2.0 91 91
- 0.828 0 1 cbr 1000 ------- 0 0.0 2.0 91 91
r 0.83 0 1 cbr 1000 ------- 0 0.0 2.0 84 84
+ 0.83 1 2 cbr 1000 ------- 0 0.0 2.0 84 84
d 0.83 1 2 cbr 1000 ------- 0 0.0 2.0 84 84
+ 0.836 0 1 cbr 1000 ------- 0 0.0 2.0 92 92
- 0.836 0 1 cbr 1000 ------- 0 0.0 2.0 92 92
r 0.838 0 1 cbr 1000 ------- 0 0.0 2.0 85 85
+ 0.838 1 2 cbr 1000 ------- 0 0.0 2.0 85 85
d 0.838 1 2 cbr 1000 ------- 0 0.0 2.0 85 85
+ 0.844 0 1 cbr 1000 ------- 0 0.0 2.0 93 93
- 0.844 0 1 cbr 1000 ------- 0 0.0 2.0 93 93
r 0.846 0 1 cbr 1000 ------- 0 0.0 2.0 86 86
+ 0.846 1 2 cbr 1000 ------- 0 0.0 2.0 86 86
d 0.846 1 2 cbr 1000 ------- 0 0.0 2.0 86 86
+ 0.852 0 1 cbr 1000 ------- 0 0.0 2.0 94 94
- 0.852 0 1 cbr 1000 ------- 0 0.0 2.0 94 94
r 0.854 0 1 cbr 1000 ------- 0 0.0 2.0 87 87
+ 0.854 1 2 cbr 1000 ------- 0 0.0 2.0 87 87
d 0.854 1 2 cbr 1000 ------- 0 0.0 2.0 87 87
+ 0.86 0 1 cbr 1000 ------- 0 0.0 2.0 95 95
- 0.86 0 1 cbr 1000 ------- 0 0.0 2.0 95 95
r 0.862 0 1 cbr 1000 ------- 0 0.0 2.0 88 88
+ 0.862 1 2 cbr 1000 ------- 0 0.0 2.0 88 88
d 0.862 1 2 cbr 1000 ------- 0 0.0 2.0 88 88
+ 0.868 0 1 cbr 1000 ------- 0 0.0 2.0 96 96
- 0.868 0 1 cbr 1000 ------- 0 0.0 2.0 96 96
r 0.87 0 1 cbr 1000 ------- 0 0.0 2.0 89 89
+ 0.87 1 2 cbr 1000 ------- 0 0.0 2.0 89 89
d 0.87 1 2 cbr 1000 ------- 0 0.0 2.0 89 89
+ 0.876 0 1 cbr 1000 ------- 0 0.0 2.0 97 97
- 0.876 0 1 cbr 1000 ------- 0 0.0 2.0 97 97
- 0.878 1 2 cbr 1000 ------- 0 0.0 2.0 9 9
r 0.878 0 1 cbr 1000 ------- 0 0.0 2.0 90 90
+ 0.878 1 2 cbr 1000 ------- 0 0.0 2.0 90 90
r 0.883 1 2 cbr 1000 ------- 0 0.0 2.0 8 8
+ 0.884 0 1 cbr 1000 ------- 0 0.0 2.0 98 98
- 0.884 0 1 cbr 1000 ------- 0 0.0 2.0 98 98
r 0.886 0 1 cbr 1000 ------- 0 0.0 2.0 91 91
+ 0.886 1 2 cbr 1000 ------- 0 0.0 2.0 91 91
d 0.886 1 2 cbr 1000 ------- 0 0.0 2.0 91 91
+ 0.892 0 1 cbr 1000 ------- 0 0.0 2.0 99 99
- 0.892 0 1 cbr 1000 ------- 0 0.0 2.0 99 99
r 0.894 0 1 cbr 1000 ------- 0 0.0 2.0 92 92
+ 0.894 1 2 cbr 1000 ------- 0 0.0 2.0 92 92
d 0.894 1 2 cbr 1000 ------- 0 0.0 2.0 92 92
+ 0.9 0 1 cbr 1000 ------- 0 0.0 2.0 100 100
- 0.9 0 1 cbr 1000 ------- 0 0.0 2.0 100 100
r 0.902 0 1 cbr 1000 ------- 0 0.0 2.0 93 93
+ 0.902 1 2 cbr 1000 ------- 0 0.0 2.0 93 93
d 0.902 1 2 cbr 1000 ------- 0 0.0 2.0 93 93
+ 0.908 0 1 cbr 1000 ------- 0 0.0 2.0 101 101
- 0.908 0 1 cbr 1000 ------- 0 0.0 2.0 101 101
r 0.91 0 1 cbr 1000 ------- 0 0.0 2.0 94 94
+ 0.91 1 2 cbr 1000 ------- 0 0.0 2.0 94 94
d 0.91 1 2 cbr 1000 ------- 0 0.0 2.0 94 94
+ 0.916 0 1 cbr 1000 ------- 0 0.0 2.0 102 102
- 0.916 0 1 cbr 1000 ------- 0 0.0 2.0 102 102
r 0.918 0 1 cbr 1000 ------- 0 0.0 2.0 95 95
+ 0.918 1 2 cbr 1000 ------- 0 0.0 2.0 95 95
d 0.918 1 2 cbr 1000 ------- 0 0.0 2.0 95 95
+ 0.924 0 1 cbr 1000 ------- 0 0.0 2.0 103 103
- 0.924 0 1 cbr 1000 ------- 0 0.0 2.0 103 103
r 0.926 0 1 cbr 1000 ------- 0 0.0 2.0 96 96
+ 0.926 1 2 cbr 1000 ------- 0 0.0 2.0 96 96
d 0.926 1 2 cbr 1000 ------- 0 0.0 2.0 96 96
+ 0.932 0 1 cbr 1000 ------- 0 0.0 2.0 104 104
- 0.932 0 1 cbr 1000 ------- 0 0.0 2.0 104 104
r 0.934 0 1 cbr 1000 ------- 0 0.0 2.0 97 97
+ 0.934 1 2 cbr 1000 ------- 0 0.0 2.0 97 97
d 0.934 1 2 cbr 1000 ------- 0 0.0 2.0 97 97
+ 0.94 0 1 cbr 1000 ------- 0 0.0 2.0 105 105
- 0.94 0 1 cbr 1000 ------- 0 0.0 2.0 105 105
r 0.942 0 1 cbr 1000 ------- 0 0.0 2.0 98 98
+ 0.942 1 2 cbr 1000 ------- 0 0.0 2.0 98 98
d 0.942 1 2 cbr 1000 ------- 0 0.0 2.0 98 98
+ 0.948 0 1 cbr 1000 ------- 0 0.0 2.0 106 106
- 0.948 0 1 cbr 1000 ------- 0 0.0 2.0 106 106
r 0.95 0 1 cbr 1000 ------- 0 0.0 2.0 99 99
+ 0.95 1 2 cbr 1000 ------- 0 0.0 2.0 99 99
d 0.95 1 2 cbr 1000 ------- 0 0.0 2.0 99 99
+ 0.956 0 1 cbr 1000 ------- 0 0.0 2.0 107 107
- 0.956 0 1 cbr 1000 ------- 0 0.0 2.0 107 107
- 0.958 1 2 cbr 1000 ------- 0 0.0 2.0 10 10
r 0.958 0 1 cbr 1000 ------- 0 0.0 2.0 100 100
+ 0.958 1 2 cbr 1000 ------- 0 0.0 2.0 100 100
r 0.963 1 2 cbr 1000 ------- 0 0.0 2.0 9 9
+ 0.964 0 1 cbr 1000 ------- 0 0.0 2.0 108 108
- 0.964 0 1 cbr 1000 ------- 0 0.0 2.0 108 108
r 0.966 0 1 cbr 1000 ------- 0 0.0 2.0 101 101
+ 0.966 1 2 cbr 1000 ------- 0 0.0 2.0 101 101
d 0.966 1 2 cbr 1000 ------- 0 0.0 2.0 101 101
+ 0.972 0 1 cbr 1000 ------- 0 0.0 2.0 109 109
- 0.972 0 1 cbr 1000 ------- 0 0.0 2.0 109 109
r 0.974 0 1 cbr 1000 ------- 0 0.0 2.0 102 102
+ 0.974 1 2 cbr 1000 ------- 0 0.0 2.0 102 102
d 0.974 1 2 cbr 1000 ------- 0 0.0 2.0 102 102
+ 0.98 0 1 cbr 1000 ------- 0 0.0 2.0 110 110
- 0.98 0 1 cbr 1000 ------- 0 0.0 2.0 110 110
r 0.982 0 1 cbr 1000 ------- 0 0.0 2.0 103 103
+ 0.982 1 2 cbr 1000 ------- 0 0.0 2.0 103 103
d 0.982 1 2 cbr 1000 ------- 0 0.0 2.0 103 103
+ 0.988 0 1 cbr 1000 ------- 0 0.0 2.0 111 111
- 0.988 0 1 cbr 1000 ------- 0 0.0 2.0 111 111
r 0.99 0 1 cbr 1000 ------- 0 0.0 2.0 104 104
+ 0.99 1 2 cbr 1000 ------- 0 0.0 2.0 104 104
d 0.99 1 2 cbr 1000 ------- 0 0.0 2.0 104 104
+ 0.996 0 1 cbr 1000 ------- 0 0.0 2.0 112 112
- 0.996 0 1 cbr 1000 ------- 0 0.0 2.0 112 112
r 0.998 0 1 cbr 1000 ------- 0 0.0 2.0 105 105
+ 0.998 1 2 cbr 1000 ------- 0 0.0 2.0 105 105
d 0.998 1 2 cbr 1000 ------- 0 0.0 2.0 105 105
+ 1.004 0 1 cbr 1000 ------- 0 0.0 2.0 113 113
- 1.004 0 1 cbr 1000 ------- 0 0.0 2.0 113 113
r 1.006 0 1 cbr 1000 ------- 0 0.0 2.0 106 106
+ 1.006 1 2 cbr 1000 ------- 0 0.0 2.0 106 106
d 1.006 1 2 cbr 1000 ------- 0 0.0 2.0 106 106
+ 1.012 0 1 cbr 1000 ------- 0 0.0 2.0 114 114
- 1.012 0 1 cbr 1000 ------- 0 0.0 2.0 114 114
r 1.014 0 1 cbr 1000 ------- 0 0.0 2.0 107 107
+ 1.014 1 2 cbr 1000 ------- 0 0.0 2.0 107 107
d 1.014 1 2 cbr 1000 ------- 0 0.0 2.0 107 107
+ 1.02 0 1 cbr 1000 ------- 0 0.0 2.0 115 115
- 1.02 0 1 cbr 1000 ------- 0 0.0 2.0 115 115
r 1.022 0 1 cbr 1000 ------- 0 0.0 2.0 108 108
+ 1.022 1 2 cbr 1000 ------- 0 0.0 2.0 108 108
d 1.022 1 2 cbr 1000 ------- 0 0.0 2.0 108 108
+ 1.028 0 1 cbr 1000 ------- 0 0.0 2.0 116 116
- 1.028 0 1 cbr 1000 ------- 0 0.0 2.0 116 116
r 1.03 0 1 cbr 1000 ------- 0 0.0 2.0 109 109
+ 1.03 1 2 cbr 1000 ------- 0 0.0 2.0 109 109
d 1.03 1 2 cbr 1000 ------- 0 0.0 2.0 109 109
+ 1.036 0 1 cbr 1000 ------- 0 0.0 2.0 117 117
- 1.036 0 1 cbr 1000 ------- 0 0.0 2.0 117 117
- 1.038 1 2 cbr 1000 ------- 0 0.0 2.0 11 11
r 1.038 0 1 cbr 1000 ------- 0 0.0 2.0 110 110
+ 1.038 1 2 cbr 1000 ------- 0 0.0 2.0 110 110
r 1.043 1 2 cbr 1000 ------- 0 0.0 2.0 10 10
+ 1.044 0 1 cbr 1000 ------- 0 0.0 2.0 118 118
- 1.044 0 1 cbr 1000 ------- 0 0.0 2.0 118 118
r 1.046 0 1 cbr 1000 ------- 0 0.0 2.0 111 111
+ 1.046 1 2 cbr 1000 ------- 0 0.0 2.0 111 111
d 1.046 1 2 cbr 1000 ------- 0 0.0 2.0 111 111
+ 1.052 0 1 cbr 1000 ------- 0 0.0 2.0 119 119
- 1.052 0 1 cbr 1000 ------- 0 0.0 2.0 119 119
r 1.054 0 1 cbr 1000 ------- 0 0.0 2.0 112 112
+ 1.054 1 2 cbr 1000 ------- 0 0.0 2.0 112 112
d 1.054 1 2 cbr 1000 ------- 0 0.0 2.0 112 112
+ 1.06 0 1 cbr 1000 ------- 0 0.0 2.0 120 120
- 1.06 0 1 cbr 1000 ------- 0 0.0 2.0 120 120
r 1.062 0 1 cbr 1000 ------- 0 0.0 2.0 113 113
+ 1.062 1 2 cbr 1000 ------- 0 0.0 2.0 113 113
d 1.062 1 2 cbr 1000 ------- 0 0.0 2.0 113 113
+ 1.068 0 1 cbr 1000 ------- 0 0.0 2.0 121 121
- 1.068 0 1 cbr 1000 ------- 0 0.0 2.0 121 121
r 1.07 0 1 cbr 1000 ------- 0 0.0 2.0 114 114
+ 1.07 1 2 cbr 1000 ------- 0 0.0 2.0 114 114
d 1.07 1 2 cbr 1000 ------- 0 0.0 2.0 114 114
+ 1.076 0 1 cbr 1000 ------- 0 0.0 2.0 122 122
- 1.076 0 1 cbr 1000 ------- 0 0.0 2.0 122 122
r 1.078 0 1 cbr 1000 ------- 0 0.0 2.0 115 115
+ 1.078 1 2 cbr 1000 ------- 0 0.0 2.0 115 115
d 1.078 1 2 cbr 1000 ------- 0 0.0 2.0 115 115
+ 1.084 0 1 cbr 1000 ------- 0 0.0 2.0 123 123
- 1.084 0 1 cbr 1000 ------- 0 0.0 2.0 123 123
r 1.086 0 1 cbr 1000 ------- 0 0.0 2.0 116 116
+ 1.086 1 2 cbr 1000 ------- 0 0.0 2.0 116 116
d 1.086 1 2 cbr 1000 ------- 0 0.0 2.0 116 116
+ 1.092 0 1 cbr 1000 ------- 0 0.0 2.0 124 124
- 1.092 0 1 cbr 1000 ------- 0 0.0 2.0 124 124
r 1.094 0 1 cbr 1000 ------- 0 0.0 2.0 117 117
+ 1.094 1 2 cbr 1000 ------- 0 0.0 2.0 117 117
d 1.094 1 2 cbr 1000 ------- 0 0.0 2.0 117 117
+ 1.1 0 1 cbr 1000 ------- 0 0.0 2.0 125 125
- 1.1 0 1 cbr 1000 ------- 0 0.0 2.0 125 125
r 1.102 0 1 cbr 1000 ------- 0 0.0 2.0 118 118
+ 1.102 1 2 cbr 1000 ------- 0 0.0 2.0 118 118
d 1.102 1 2 cbr 1000 ------- 0 0.0 2.0 118 118
+ 1.108 0 1 cbr 1000 ------- 0 0.0 2.0 126 126
- 1.108 0 1 cbr 1000 ------- 0 0.0 2.0 126 126
r 1.11 0 1 cbr 1000 ------- 0 0.0 2.0 119 119
+ 1.11 1 2 cbr 1000 ------- 0 0.0 2.0 119 119
d 1.11 1 2 cbr 1000 ------- 0 0.0 2.0 119 119
+ 1.116 0 1 cbr 1000 ------- 0 0.0 2.0 127 127
- 1.116 0 1 cbr 1000 ------- 0 0.0 2.0 127 127
- 1.118 1 2 cbr 1000 ------- 0 0.0 2.0 12 12
r 1.118 0 1 cbr 1000 ------- 0 0.0 2.0 120 120
+ 1.118 1 2 cbr 1000 ------- 0 0.0 2.0 120 120
r 1.123 1 2 cbr 1000 ------- 0 0.0 2.0 11 11
+ 1.124 0 1 cbr 1000 ------- 0 0.0 2.0 128 128
- 1.124 0 1 cbr 1000 ------- 0 0.0 2.0 128 128
r 1.126 0 1 cbr 1000 ------- 0 0.0 2.0 121 121
+ 1.126 1 2 cbr 1000 ------- 0 0.0 2.0 121 121
d 1.126 1 2 cbr 1000 ------- 0 0.0 2.0 121 121
+ 1.132 0 1 cbr 1000 ------- 0 0.0 2.0 129 129
- 1.132 0 1 cbr 1000 ------- 0 0.0 2.0 129 129
r 1.134 0 1 cbr 1000 ------- 0 0.0 2.0 122 122
+ 1.134 1 2 cbr 1000 ------- 0 0.0 2.0 122 122
d 1.134 1 2 cbr 1000 ------- 0 0.0 2.0 122 122
+ 1.14 0 1 cbr 1000 ------- 0 0.0 2.0 130 130
- 1.14 0 1 cbr 1000 ------- 0 0.0 2.0 130 130
r 1.142 0 1 cbr 1000 ------- 0 0.0 2.0 123 123
+ 1.142 1 2 cbr 1000 ------- 0 0.0 2.0 123 123
d 1.142 1 2 cbr 1000 ------- 0 0.0 2.0 123 123
+ 1.148 0 1 cbr 1000 ------- 0 0.0 2.0 131 131
- 1.148 0 1 cbr 1000 ------- 0 0.0 2.0 131 131
r 1.15 0 1 cbr 1000 ------- 0 0.0 2.0 124 124
+ 1.15 1 2 cbr 1000 ------- 0 0.0 2.0 124 124
d 1.15 1 2 cbr 1000 ------- 0 0.0 2.0 124 124
+ 1.156 0 1 cbr 1000 ------- 0 0.0 2.0 132 132
- 1.156 0 1 cbr 1000 ------- 0 0.0 2.0 132 132
r 1.158 0 1 cbr 1000 ------- 0 0.0 2.0 125 125
+ 1.158 1 2 cbr 1000 ------- 0 0.0 2.0 125 125
d 1.158 1 2 cbr 1000 ------- 0 0.0 2.0 125 125
+ 1.164 0 1 cbr 1000 ------- 0 0.0 2.0 133 133
- 1.164 0 1 cbr 1000 ------- 0 0.0 2.0 133 133
r 1.166 0 1 cbr 1000 ------- 0 0.0 2.0 126 126
+ 1.166 1 2 cbr 1000 ------- 0 0.0 2.0 126 126
d 1.166 1 2 cbr 1000 ------- 0 0.0 2.0 126 126
+ 1.172 0 1 cbr 1000 ------- 0 0.0 2.0 134 134
- 1.172 0 1 cbr 1000 ------- 0 0.0 2.0 134 134
r 1.174 0 1 cbr 1000 ------- 0 0.0 2.0 127 127
+ 1.174 1 2 cbr 1000 ------- 0 0.0 2.0 127 127
d 1.174 1 2 cbr 1000 ------- 0 0.0 2.0 127 127
+ 1.18 0 1 cbr 1000 ------- 0 0.0 2.0 135 135
- 1.18 0 1 cbr 1000 ------- 0 0.0 2.0 135 135
r 1.182 0 1 cbr 1000 ------- 0 0.0 2.0 128 128
+ 1.182 1 2 cbr 1000 ------- 0 0.0 2.0 128 128
d 1.182 1 2 cbr 1000 ------- 0 0.0 2.0 128 128
+ 1.188 0 1 cbr 1000 ------- 0 0.0 2.0 136 136
- 1.188 0 1 cbr 1000 ------- 0 0.0 2.0 136 136
r 1.19 0 1 cbr 1000 ------- 0 0.0 2.0 129 129
+ 1.19 1 2 cbr 1000 ------- 0 0.0 2.0 129 129
d 1.19 1 2 cbr 1000 ------- 0 0.0 2.0 129 129
+ 1.196 0 1 cbr 1000 ------- 0 0.0 2.0 137 137
- 1.196 0 1 cbr 1000 ------- 0 0.0 2.0 137 137